   This run of MOLCAS is using the pymolcas driver

                             OPE
                             OPE          NMOL  CASOP  ENMOLC A   SO
                 OPE        NMOLC        AS  OP EN  MO LC     AS  OP
                OPENM       OL CA        SO  PE NM  OL CA     SOP EN
                OP EN      MO   LC       AS  OP ENMOL  CASO   PENMOL
                OP  EN     MO   LC       AS  OP EN     MO     LC ASO
               OP   E  NMOL  C  AS       OP  EN MO     LC     AS  OP
               OP  E   NMO   LC AS        OPEN  MO     LCASOP EN   M
               O  PEN   MO  LCA  SO
            OPE   NMO   L   CAS    OP
        OPENMOL  CASOP     ENMOL   CASOPE
     OPENMOLCA   SOPENMOLCASOPEN   MOLCASOPE
    OPENMOLCAS   OP           EN   MOL    CAS
    OPENMOLCAS       OP  ENM        O     LCA
    OPENMOLCAS    OPEN  MOLCASO     P  E  NMO
    OPENMOLCAS     OP               E  N  MOL
    OPENMOLCA   SO           PENM   O  L  CAS    OPEN    MO    LCAS
    OPENMOLCA   SOP           ENM   O  L  CAS   OP  EN  MOLC  AS   O
    OPENMOLCA   SOPE           NM      O  LCA   S      OP  EN MO
    OPENMOLC                AS         O  PEN   M      OL  CA  SOPE
    OPENMO        LCASOPE  NMOL        C  ASO   P      ENMOLC     AS
    OPE     NMO      LCA  SO     P     E   NM   OL  CA SO  PE N   MO
          OPENMOLCA            SOPE   NMO        LCAS  O    P  ENMO
     OPENMOLCASOPENMOLCASOPENMOLCASOPENMOLCA
        OPENMOLCASOPENMOLCASOPENMOLCASOPE
            OPENMOLCASOPENMOLCASOPENM
               OPENMOLCASOPENMOLCA        version: v19.11 ?
                   OPENMOLCASO
                       OPE                tag:

 OpenMolcas is free software; you can redistribute it and/or modify it
 under the terms of the GNU Lesser General Public License version 2.1.
 OpenMolcas is distributed in the hope that it will be useful, but it
 is provided "as is" and without any express or implied warranties.
 For more details see the full text of the license in the file
 LICENSE or in <http://www.gnu.org/licenses/>.

                 Copyright (C) The OpenMolcas Authors
           For the author list and the recommended citation,
                   consult the file CONTRIBUTORS.md

           *************************************************
           * pymolcas version py2.06                       *
           *   build 99e611e35fc7aec87fd6f34cfa558dd4      *
           *   (after the EMIL interpreter by V. Veryazov) *
           *************************************************


   ----------------------------------------------------------------------------------------------------------------
  |
  |              Project: PyH2HoNO34
  |       Submitted from: /media/korden/5fb66ce1-8053-4a4f-9303-c4fa91c2cea8/home/korden/calc/orca/Artem/PyH2HoNO34
  |         Scratch area: /tmp/PyH2HoNO34
  |      Save outputs to: /media/korden/5fb66ce1-8053-4a4f-9303-c4fa91c2cea8/home/korden/calc/orca/Artem/PyH2HoNO34
  |               Molcas: /usr/share/openmolcas
  |
  | Scratch area is NOT empty
  |
  |        MOLCAS_COLOR = YES
  |       MOLCAS_DRIVER = /usr/bin/pymolcas
  | MOLCAS_KEEP_WORKDIR = YES
  |      MOLCAS_MAXITER = 100
  |       MOLCAS_MOLDEN = YES
  |  MOLCAS_NEW_WORKDIR = NO
  |       MOLCAS_NPROCS = 1
  |        MOLCAS_PRINT = NORMAL
  |         MOLCAS_SAVE = ORIG
  |       MOLCAS_SOURCE = /home/korden/build
  |    MOLCAS_STRUCTURE = 0
  |         MOLCAS_TRAP = YES
  |
   ----------------------------------------------------------------------------------------------------------------

++ ---------   Input file   ---------

&GATEWAY
Douglas-Kroll

AMFI
ANGM
 2.840772 1.929382 2.862764  Angstrom

Basis Set
Ho.ANO-RCC-VTZP.
 Ho1    2.840772 1.929382 2.862764    Angstrom
End of Basis Set

Basis Set
O.ANO-RCC-VTZP.
 O1    2.976980 0.997254 0.589539    Angstrom
 O2    4.923328 2.848503 3.777791    Angstrom
 O3    1.933028 4.165275 2.642760    Angstrom
 O4    2.518717 2.866848 5.111594    Angstrom
 O5    0.905001 1.714373 4.278108    Angstrom
 O6    5.096545 1.292513 2.285874    Angstrom
 O7    0.739260 2.508640 6.307612    Angstrom
 O8    2.309298 -0.445350 2.918329    Angstrom
 O9    2.750071 5.707873 1.348485    Angstrom
 O10    3.623178 0.287688 4.457680    Angstrom
 O11    1.064054 1.714836 1.254746    Angstrom
 O12    3.627833 3.708936 1.391402    Angstrom
 O13    6.894873 2.165398 3.183735    Angstrom
 O14    1.234164 0.754939 -0.687795    Angstrom
 O15    3.111220 -1.827646 4.400082    Angstrom
End of Basis Set

Basis Set
N.ANO-RCC-VTZP.
 N1    5.693749 2.102670 3.086608    Angstrom
 N2    3.016076 -0.696799 3.940422    Angstrom
 N3    1.751326 1.140434 0.345592    Angstrom
 N4    2.768413 4.572786 1.773134    Angstrom
 N5    1.372615 2.366746 5.271967    Angstrom
End of Basis Set

&SEWARD
HIGH Cholesky

&RASSCF
SYMM
1
CIMX
200
charge
-2
Spin
5
ciroot
35 35 1
Nactel
10 0 0
Ras2
7
ORBL
nocore
ORBA
compact

>>> COPY $Project.JobIph JOB001

&RASSI
spinorbit
nrofjobiphs=1 35
1 2 3 4 5 6 7 8 9 10 11 12 13 14 15 16 17 18 19 20 21 22 23 24 25 26 27 28 29 30 31 32 33 34 35
mees
PROP
3
'ANGMOM' 1
'ANGMOM' 2
'ANGMOM' 3

&SINGLE_ANISO
MLTP
8
2 2 2 2  2 2 2 2
CRYS
Ho
XFIE
1
TINT
0 300 301
HINT
0 5 51
TMAG
3 2.0 3.0 5.0
UBAR

>>> COPY $Project.aniso $CurrDir/HoNO34.aniso

-- ----------------------------------

*** symbolic link created: INPORB -> PyH2HoNO34.RasOrb
--- Start Module: gateway at Mon Jan 27 22:37:54 2025 ---

()()()()()()()()()()()()()()()()()()()()()()()()()()()()()()()()()()()()()()()()()()()()()()()()()()

                                              &GATEWAY

                                   only a single process is used
                       available to each process: 32 GB of memory, 1 thread?
                                             pid: 38526
()()()()()()()()()()()()()()()()()()()()()()()()()()()()()()()()()()()()()()()()()()()()()()()()()()


++    Symmetry information:
      ---------------------

                    Character Table for C1 

                             E  
                    a        1  x, y, xy, Rz, z, xz, Ry, yz, Rx, I
--


++    Basis set information:
      ----------------------


      Basis set label: HO.ANO-RCC...8S7P5D3F2G1H.

      Electronic valence basis set:
      ------------------
      Associated Effective Charge  67.000000 au
      Associated Actual Charge     67.000000 au
      Nuclear Model: Point charge

      Shell  nPrim  nBasis  Cartesian Spherical Contaminant
         s      25       8        X                  
         p      22       7        X                  
         d      15       5                 X         
         f      11       3                 X         
         g       4       2                 X         
         h       2       1                 X         


      Basis set label: O.ANO-RCC...4S3P2D1F.

      Electronic valence basis set:
      ------------------
      Associated Effective Charge   8.000000 au
      Associated Actual Charge      8.000000 au
      Nuclear Model: Point charge

      Shell  nPrim  nBasis  Cartesian Spherical Contaminant
         s      14       4        X                  
         p       9       3        X                  
         d       4       2                 X         
         f       3       1                 X         


      Basis set label: N.ANO-RCC...4S3P2D1F.

      Electronic valence basis set:
      ------------------
      Associated Effective Charge   7.000000 au
      Associated Actual Charge      7.000000 au
      Nuclear Model: Point charge

      Shell  nPrim  nBasis  Cartesian Spherical Contaminant
         s      14       4        X                  
         p       9       3        X                  
         d       4       2                 X         
         f       3       1                 X         
--


++    Molecular structure info:
      -------------------------

                    ************************************************ 
                    **** Cartesian Coordinates / Bohr, Angstrom **** 
                    ************************************************ 

     Center  Label                x              y              z                     x              y              z
        1      HO1              5.368281       3.646004       5.409840              2.840772       1.929382       2.862764
        2      O1               5.625677       1.884537       1.114067              2.976980       0.997254       0.589539
        3      O2               9.303742       5.382891       7.138990              4.923328       2.848503       3.777791
        4      O3               3.652894       7.871229       4.994093              1.933028       4.165275       2.642760
        5      O4               4.759685       5.417558       9.659513              2.518717       2.866848       5.111594
        6      O5               1.710204       3.239695       8.084452              0.905001       1.714373       4.278108
        7      O6               9.631074       2.442496       4.319676              5.096545       1.292513       2.285874
        8      O7               1.396999       4.740643      11.919659              0.739260       2.508640       6.307612
        9      O8               4.363941      -0.841590       5.514843              2.309298      -0.445350       2.918329
       10      O9               5.196881      10.786317       2.548267              2.750071       5.707873       1.348485
       11      O10              6.846814       0.543652       8.423794              3.623178       0.287688       4.457680
       12      O11              2.010771       3.240570       2.371126              1.064054       1.714836       1.254746
       13      O12              6.855611       7.008873       2.629369              3.627833       3.708936       1.391402
       14      O13             13.029422       4.092009       6.016387              6.894873       2.165398       3.183735
       15      O14              2.332232       1.426628      -1.299744              1.234164       0.754939      -0.687795
       16      O15              5.879354      -3.453750       8.314950              3.111220      -1.827646       4.400082
       17      N1              10.759626       3.973470       5.832844              5.693749       2.102670       3.086608
       18      N2               5.699558      -1.316759       7.446318              3.016076      -0.696799       3.940422
       19      N3               3.309526       2.155108       0.653074              1.751326       1.140434       0.345592
       20      N4               5.231542       8.641313       3.350738              2.768413       4.572786       1.773134
       21      N5               2.593866       4.472502       9.962574              1.372615       2.366746       5.271967

                    ************************************************* 
                    **** InterNuclear Distances / Bohr, Angstrom **** 
                    ************************************************* 

     Atom centers         Bohr        Angstrom
   17 N1       14 O13     2.280287        1.206676
   20 N4       10 O9      2.290459        1.212058
   19 N3       15 O14     2.302018        1.218176
   21 N5        8 O7      2.309670        1.222225
   18 N2       16 O15     2.313780        1.224400
   19 N3        2 O1      2.377031        1.257871
   21 N5        5 O4      2.382383        1.260703
   18 N2       11 O10     2.394324        1.267021
   18 N2        9 O8      2.395883        1.267847
   20 N4        4 O3      2.405364        1.272864
   17 N1        3 O2      2.410826        1.275754
   19 N3       12 O11     2.411783        1.276261
   20 N4       13 O12     2.413054        1.276933
   21 N5        6 O5      2.414127        1.277501
   17 N1        7 O6      2.430471        1.286150
   12 O11       2 O1      4.060366        2.148653
    6 O5        5 O4      4.064878        2.151041
   11 O10       9 O8      4.067623        2.152493
   13 O12       4 O3      4.073448        2.155576
    7 O6        3 O2      4.086760        2.162620
   14 O13       3 O2      4.099671        2.169453
   10 O9        4 O3      4.106543        2.173089
   15 O14      12 O11     4.107191        2.173432
    8 O7        5 O4      4.107814        2.173762
   15 O14       2 O1      4.108886        2.174329
   16 O15      11 O10     4.114249        2.177167
   16 O15       9 O8      4.118308        2.179315
   13 O12      10 O9      4.126384        2.183588
    8 O7        6 O5      4.130345        2.185684
   14 O13       7 O6      4.141073        2.191362
   12 O11       1 HO1     4.546541        2.405926
    6 O5        1 HO1     4.549744        2.407621
    7 O6        1 HO1     4.561611        2.413901
   11 O10       1 HO1     4.571058        2.418900
    4 O3        1 HO1     4.579075        2.423142
    9 O8        1 HO1     4.599806        2.434113
   13 O12       1 HO1     4.609996        2.439505
    3 O2        1 HO1     4.636225        2.453385
    5 O4        1 HO1     4.644191        2.457600
    2 O1        1 HO1     4.650019        2.460684
    7 O6        2 O1      5.160470        2.730803
    5 O4        3 O2      5.196410        2.749822
   11 O10       7 O6      5.310509        2.810200
    9 O8        2 O1      5.328280        2.819604
   18 N2        1 HO1     5.374570        2.844100
   13 O12       3 O2      5.382736        2.848421
    5 O4        4 O3      5.386245        2.850278
   19 N3        1 HO1     5.393335        2.854030
   21 N5        1 HO1     5.395170        2.855001
   20 N4        1 HO1     5.404787        2.860090
   17 N1        1 HO1     5.417820        2.866987
   11 O10       5 O4      5.444085        2.880886
   13 O12       2 O1      5.483402        2.901691
    9 O8        6 O5      5.504734        2.912980
   12 O11       4 O3      5.569517        2.947261
   11 O10       3 O2      5.577226        2.951341
   13 O12       7 O6      5.604653        2.965855
   12 O11       9 O8      5.664309        2.997423
--


            Nuclear Potential Energy           3710.39704582 au

--- Stop Module: gateway at Mon Jan 27 22:37:54 2025 /rc=_RC_ALL_IS_WELL_ ---
*** files: xmldump
    saved to directory /media/korden/5fb66ce1-8053-4a4f-9303-c4fa91c2cea8/home/korden/calc/orca/Artem/PyH2HoNO34

*** symbolic link created: INPORB -> PyH2HoNO34.RasOrb
--- Start Module: seward at Mon Jan 27 22:37:54 2025 ---

()()()()()()()()()()()()()()()()()()()()()()()()()()()()()()()()()()()()()()()()()()()()()()()()()()

                                              &SEWARD

                                   only a single process is used
                       available to each process: 32 GB of memory, 1 thread?
                                             pid: 38530
()()()()()()()()()()()()()()()()()()()()()()()()()()()()()()()()()()()()()()()()()()()()()()()()()()

               SEWARD will generate:
                  Multipole Moment integrals up to order  2
                  Kinetic Energy integrals
                  Nuclear Attraction integrals (point charge)
                  One-Electron Hamiltonian integrals
                  Velocity integrals
                  Relativistic Douglas-Kroll integrals
                  Orbital angular momentum around ( 5.3683  3.6460  5.4098 )
                  Velocity quadrupole around ( 5.4602  3.6064  5.4359 )
                  Atomic mean-field integrals
                  Cholesky decomposed two-electron repulsion integrals
                   - CD Threshold:   0.10E-07

                   Integrals are discarded if absolute value <: 0.10E-39
                   Integral cutoff threshold is set to       <: 0.10E-39

            Nuclear Potential Energy           3710.39704582 au


      Basis set specifications :
      Symmetry species         a  
      Basis functions          704

      Cholesky vectors        9553


 Sorry, Molden does not know how to handle
 functions with angular momentum larger than g
--- Stop Module: seward at Tue Jan 28 01:10:59 2025 /rc=_RC_ALL_IS_WELL_ ---
*** files: PyH2HoNO34.GssOrb xmldump
    saved to directory /media/korden/5fb66ce1-8053-4a4f-9303-c4fa91c2cea8/home/korden/calc/orca/Artem/PyH2HoNO34
--- Module seward spent 2 hours 33 minutes 5 seconds ---

*** symbolic link created: INPORB -> PyH2HoNO34.RasOrb
--- Start Module: rasscf at Tue Jan 28 01:10:59 2025 ---

()()()()()()()()()()()()()()()()()()()()()()()()()()()()()()()()()()()()()()()()()()()()()()()()()()

                                              &RASSCF

                                   only a single process is used
                       available to each process: 32 GB of memory, 1 thread?
                                             pid: 38685
()()()()()()()()()()()()()()()()()()()()()()()()()()()()()()()()()()()()()()()()()()()()()()()()()()


      Header of the ONEINT file:
      --------------------------
      
      Integrals generated by Gateway/Seward, Mon Jan 27 22:37:54 2025


      OrdInt status: non-squared


      Cartesian coordinates in Angstrom:
      -----------------------------------------------------
      No.  Label        X            Y            Z        
      -----------------------------------------------------
       1   HO1        2.84077200   1.92938200   2.86276400
       2   O1         2.97698000   0.99725400   0.58953900
       3   O2         4.92332800   2.84850300   3.77779100
       4   O3         1.93302800   4.16527500   2.64276000
       5   O4         2.51871700   2.86684800   5.11159400
       6   O5         0.90500100   1.71437300   4.27810800
       7   O6         5.09654500   1.29251300   2.28587400
       8   O7         0.73926000   2.50864000   6.30761200
       9   O8         2.30929800  -0.44535000   2.91832900
      10   O9         2.75007100   5.70787300   1.34848500
      11   O10        3.62317800   0.28768800   4.45768000
      12   O11        1.06405400   1.71483600   1.25474600
      13   O12        3.62783300   3.70893600   1.39140200
      14   O13        6.89487300   2.16539800   3.18373500
      15   O14        1.23416400   0.75493900  -0.68779500
      16   O15        3.11122000  -1.82764600   4.40008200
      17   N1         5.69374900   2.10267000   3.08660800
      18   N2         3.01607600  -0.69679900   3.94042200
      19   N3         1.75132600   1.14043400   0.34559200
      20   N4         2.76841300   4.57278600   1.77313400
      21   N5         1.37261500   2.36674600   5.27196700
      -----------------------------------------------------
      Nuclear repulsion energy = 3710.39704582

++    Wave function specifications:
      -----------------------------

      Number of closed shell electrons         214
      Number of electrons in active shells      10
      Max number of holes in RAS1 space          0
      Max nr of electrons in RAS3 space          0
      Number of inactive orbitals              107
      Number of active orbitals                  7
      Number of secondary orbitals             590
      Spin quantum number                      2.0
      State symmetry                             1
--

++    Orbital specifications:
      -----------------------

      Symmetry species                           1
                                                 a
      Frozen orbitals                            0
      Inactive orbitals                        107
      Active orbitals                            7
      RAS1 orbitals                              0
      RAS2 orbitals                              7
      RAS3 orbitals                              0
      Secondary orbitals                       590
      Deleted orbitals                           0
      Number of basis functions                704
--

++    CI expansion specifications:
      ----------------------------

      Number of CSFs                            35
      Number of determinants                    35
      Number of root(s) required                35
      Root chosen for geometry opt.             35
      CI roots used                              1     2     3     4     5     6     7     8     9    10
                                                11    12    13    14    15    16    17    18    19    20
                                                21    22    23    24    25    26    27    28    29    30
                                                31    32    33    34    35
      weights                                0.029 0.029 0.029 0.029 0.029 0.029 0.029 0.029 0.029 0.029
                                             0.029 0.029 0.029 0.029 0.029 0.029 0.029 0.029 0.029 0.029
                                             0.029 0.029 0.029 0.029 0.029 0.029 0.029 0.029 0.029 0.029
                                             0.029 0.029 0.029 0.029 0.029
      highest root included in the CI           35
      max. size of the explicit Hamiltonian     35
--

++    Optimization specifications:
      ----------------------------

      RASSCF algorithm: LK Cholesky
      Maximum number of macro iterations       200
      Maximum number of SX iterations          100
      Threshold for RASSCF energy            0.100E-07
      Threshold for max MO rotation          0.100E+00
      Threshold for max BLB element          0.100E-03
      Level shift parameter                  0.500E+00
      Make Quasi-Newton update
--

      Orbitals from runfile: guessorb orbitals
      The MO-coefficients are taken from guessorb on runfile

      Total molecular charge   -2.00

      ************************************************************************************************************************
      *                                                                                                                      *
      *                                            Wave function control section                                             *
      *                                                                                                                      *
      ************************************************************************************************************************


                                         RASSCF iterations: Energy and convergence statistics
                                         ----------------------------------------------------

      Iter CI   SX   CI       RASSCF       Energy    max ROT     max BLB   max BLB  Level Ln srch  Step   QN   Walltime
          iter iter root      energy       change     param      element    value   shift minimum  type update hh:mm:ss
 Nr of preliminary CI iterations:   1
      Total energies have been shifted. Add               -13000.00 au
        1   1   11    0  -996.71997062    0.00E+00   0.54E-01   66 120 1  0.46E+00*  0.88   0.00    SX    NO    0:13:37
        2   1   13    0 -1000.09308778   -0.34E+01*  0.73E-01   66 120 1  0.23E+00*  0.53   0.00    SX    NO    0:07:43
        3   1   14    0 -1001.08295221   -0.99E+00*  0.77E-01   51 134 1  0.60E-01*  0.54   0.00    SX    NO    0:07:59
        4   1   14    0 -1001.25228037   -0.17E+00*  0.97E-02   42 690 1 -0.59E-01*  0.42   0.00    SX    NO    0:08:25
        5   1   13    0 -1001.29140496   -0.39E-01*  0.90E-02   42 690 1  0.56E-01*  0.48   1.34    QN   YES    0:08:24
        6   1   12    0 -1001.30394167   -0.13E-01*  0.40E-02   42 690 1 -0.22E-01*  0.41   0.91    QN   YES    0:08:25
        7   1   11    0 -1001.30517170   -0.12E-02*  0.29E-02   63 116 1  0.32E-02*  0.43   1.27    QN   YES    0:08:41
        8   1   10    0 -1001.30549902   -0.33E-03*  0.23E-02   42 690 1  0.36E-02*  0.43   1.47    QN   YES    0:09:09
        9   1   10    0 -1001.30561220   -0.11E-03* -0.17E-02   42 690 1  0.13E-02*  0.43   1.14    QN   YES    0:09:08
       10   1    9    0 -1001.30563547   -0.23E-04* -0.50E-03   87 115 1  0.46E-03*  0.43   1.24    QN   YES    0:09:21
       11   1    9    0 -1001.30564229   -0.68E-05*  0.22E-03   42 690 1 -0.30E-03*  0.43   1.29    QN   YES    0:09:32
       12   1    8    0 -1001.30564373   -0.14E-05* -0.12E-03   42 690 1 -0.12E-03*  0.43   1.28    QN   YES    0:09:36
       13   1    8    0 -1001.30564409   -0.36E-06* -0.66E-04   63 116 1 -0.52E-04   0.43   1.26    QN   YES    0:09:43
       14   1    7    0 -1001.30564418   -0.89E-07* -0.25E-04   42 690 1  0.30E-04   0.43   1.17    QN   YES    0:09:50
       15   1    6    0 -1001.30564419   -0.13E-07* -0.79E-05   42 690 1  0.88E-05   0.43   1.18    QN   YES    0:09:54
       16   1    5    0 -1001.30564420   -0.14E-08  -0.31E-05   64 118 1 -0.18E-05   0.43   2.50    QN   YES    0:10:02
      Convergence after 16 iterations
       17   1    5    0 -1001.30564420   -0.24E-09  -0.31E-05  114 700 1 -0.16E-05   0.43   2.50    QN   YES    0:10:09

      ************************************************************************************************************************
                                                      Wave function printout:
                       occupation of active orbitals, and spin coupling of open shells (u,d: Spin up or down)
      ************************************************************************************************************************

      Note: transformation to natural orbitals
      has been made, which may change the order of the CSFs.

      printout of CI-coefficients larger than  0.05 for root  1
      energy=  -14001.388185
      conf/sym  1111111     Coeff  Weight
             1  222uuuu  -0.47880 0.22925
             2  22u2uuu  -0.05438 0.00296
             3  22uu2uu  -0.22257 0.04954
             4  22uuu2u  -0.25855 0.06685
             5  22uuuu2  -0.18505 0.03424
             8  2u2uu2u  -0.05088 0.00259
             9  2u2uuu2  -0.31591 0.09980
            10  u222uuu   0.19323 0.03734
            11  u22u2uu  -0.16116 0.02597
            12  u22uu2u   0.20267 0.04107
            13  u22uuu2  -0.12521 0.01568
            14  2uu22uu   0.19724 0.03890
            16  2uuu22u   0.06888 0.00474
            17  2uu2uu2   0.06131 0.00376
            18  2uuu2u2  -0.15677 0.02458
            20  u2u22uu  -0.09332 0.00871
            21  u2u2u2u   0.08448 0.00714
            23  u2u2uu2  -0.16625 0.02764
            24  u2uu2u2  -0.05433 0.00295
            26  uu222uu   0.15276 0.02333
            27  uu22u2u  -0.18741 0.03512
            29  uu22uu2  -0.26603 0.07077
            30  uu2u2u2   0.17597 0.03097
            31  uu2uu22  -0.18004 0.03241
            32  uuu222u   0.06266 0.00393
            33  uuu22u2   0.19359 0.03748
            34  uuu2u22  -0.17808 0.03171
            35  uuuu222  -0.07284 0.00531

      printout of CI-coefficients larger than  0.05 for root  2
      energy=  -14001.387899
      conf/sym  1111111     Coeff  Weight
             1  222uuuu   0.05253 0.00276
             2  22u2uuu   0.07400 0.00548
             4  22uuu2u   0.06238 0.00389
             5  22uuuu2  -0.08524 0.00727
             6  2u22uuu   0.52630 0.27699
             7  2u2u2uu  -0.36652 0.13434
             8  2u2uu2u   0.22428 0.05030
            10  u222uuu  -0.26869 0.07219
            11  u22u2uu   0.08247 0.00680
            13  u22uuu2  -0.07439 0.00553
            14  2uu22uu  -0.14959 0.02238
            16  2uuu22u   0.10935 0.01196
            17  2uu2uu2  -0.17538 0.03076
            18  2uuu2u2  -0.11214 0.01258
            19  2uuuu22  -0.08426 0.00710
            20  u2u22uu  -0.10575 0.01118
            22  u2uu22u   0.13231 0.01751
            23  u2u2uu2  -0.26202 0.06865
            25  u2uuu22  -0.27773 0.07713
            26  uu222uu  -0.20917 0.04375
            28  uu2u22u   0.18243 0.03328
            31  uu2uu22  -0.18548 0.03440
            32  uuu222u   0.05899 0.00348
            33  uuu22u2   0.16543 0.02737
            34  uuu2u22  -0.07964 0.00634
            35  uuuu222  -0.14913 0.02224

      printout of CI-coefficients larger than  0.05 for root  3
      energy=  -14001.387660
      conf/sym  1111111     Coeff  Weight
             1  222uuuu  -0.38468 0.14798
             2  22u2uuu  -0.05682 0.00323
             3  22uu2uu  -0.32620 0.10641
             4  22uuu2u   0.21964 0.04824
             6  2u22uuu  -0.07894 0.00623
             7  2u2u2uu  -0.22070 0.04871
             8  2u2uu2u  -0.18343 0.03365
            10  u222uuu  -0.19061 0.03633
            11  u22u2uu   0.13761 0.01894
            12  u22uu2u  -0.27023 0.07303
            13  u22uuu2   0.08950 0.00801
            14  2uu22uu  -0.19453 0.03784
            15  2uu2u2u  -0.10247 0.01050
            16  2uuu22u   0.10150 0.01030
            17  2uu2uu2  -0.30619 0.09375
            18  2uuu2u2   0.05301 0.00281
            19  2uuuu22   0.13447 0.01808
            21  u2u2u2u   0.20274 0.04110
            22  u2uu22u  -0.13100 0.01716
            23  u2u2uu2   0.10790 0.01164
            25  u2uuu22   0.14310 0.02048
            26  uu222uu   0.10986 0.01207
            28  uu2u22u   0.11475 0.01317
            29  uu22uu2   0.29525 0.08717
            31  uu2uu22   0.10856 0.01178
            32  uuu222u   0.07890 0.00622
            33  uuu22u2  -0.08534 0.00728
            34  uuu2u22  -0.22887 0.05238
            35  uuuu222   0.08802 0.00775

      printout of CI-coefficients larger than  0.05 for root  4
      energy=  -14001.387515
      conf/sym  1111111     Coeff  Weight
             1  222uuuu  -0.40792 0.16640
             2  22u2uuu   0.15367 0.02361
             3  22uu2uu   0.19010 0.03614
             4  22uuu2u   0.24118 0.05817
             5  22uuuu2   0.34900 0.12180
             6  2u22uuu   0.35010 0.12257
             7  2u2u2uu   0.13311 0.01772
             8  2u2uu2u   0.09042 0.00818
             9  2u2uuu2   0.13634 0.01859
            10  u222uuu   0.14237 0.02027
            11  u22u2uu   0.12274 0.01507
            12  u22uu2u   0.10858 0.01179
            13  u22uuu2  -0.06659 0.00443
            15  2uu2u2u  -0.30425 0.09257
            16  2uuu22u   0.09096 0.00827
            17  2uu2uu2   0.15167 0.02300
            19  2uuuu22   0.09335 0.00871
            21  u2u2u2u   0.10299 0.01061
            24  u2uu2u2  -0.13139 0.01726
            25  u2uuu22   0.10834 0.01174
            26  uu222uu   0.10295 0.01060
            27  uu22u2u  -0.24320 0.05915
            28  uu2u22u   0.05833 0.00340
            29  uu22uu2  -0.08006 0.00641
            30  uu2u2u2  -0.09032 0.00816
            32  uuu222u  -0.19642 0.03858
            33  uuu22u2  -0.10327 0.01067
            34  uuu2u22   0.24130 0.05823

      printout of CI-coefficients larger than  0.05 for root  5
      energy=  -14001.387366
      conf/sym  1111111     Coeff  Weight
             1  222uuuu   0.23431 0.05490
             2  22u2uuu  -0.40501 0.16404
             4  22uuu2u   0.12054 0.01453
             6  2u22uuu   0.39720 0.15776
             7  2u2u2uu   0.05546 0.00308
             8  2u2uu2u  -0.30177 0.09107
            11  u22u2uu  -0.07453 0.00555
            12  u22uu2u   0.05318 0.00283
            14  2uu22uu   0.09144 0.00836
            15  2uu2u2u  -0.05359 0.00287
            16  2uuu22u  -0.42078 0.17705
            18  2uuu2u2  -0.18050 0.03258
            19  2uuuu22   0.35248 0.12425
            20  u2u22uu  -0.09443 0.00892
            21  u2u2u2u  -0.07874 0.00620
            22  u2uu22u  -0.18543 0.03439
            23  u2u2uu2  -0.07446 0.00554
            24  u2uu2u2  -0.05939 0.00353
            25  u2uuu22   0.21450 0.04601
            26  uu222uu  -0.05876 0.00345
            27  uu22u2u  -0.14545 0.02116
            32  uuu222u   0.08129 0.00661
            33  uuu22u2   0.07824 0.00612
            34  uuu2u22  -0.06926 0.00480
            35  uuuu222   0.08146 0.00664

      printout of CI-coefficients larger than  0.05 for root  6
      energy=  -14001.387099
      conf/sym  1111111     Coeff  Weight
             1  222uuuu   0.06851 0.00469
             3  22uu2uu  -0.27743 0.07697
             4  22uuu2u   0.38542 0.14855
             5  22uuuu2  -0.15582 0.02428
             6  2u22uuu   0.14559 0.02120
             8  2u2uu2u  -0.28754 0.08268
            10  u222uuu   0.07870 0.00619
            11  u22u2uu   0.12636 0.01597
            12  u22uu2u  -0.27744 0.07697
            13  u22uuu2  -0.09151 0.00837
            14  2uu22uu   0.22482 0.05054
            15  2uu2u2u   0.40294 0.16236
            16  2uuu22u   0.22129 0.04897
            17  2uu2uu2   0.39224 0.15385
            19  2uuuu22  -0.19729 0.03892
            21  u2u2u2u   0.11819 0.01397
            24  u2uu2u2  -0.05323 0.00283
            25  u2uuu22  -0.05754 0.00331
            26  uu222uu  -0.10201 0.01041
            27  uu22u2u  -0.09503 0.00903
            29  uu22uu2  -0.13592 0.01847
            30  uu2u2u2  -0.06574 0.00432
            32  uuu222u  -0.08170 0.00667
            34  uuu2u22   0.06476 0.00419

      printout of CI-coefficients larger than  0.05 for root  7
      energy=  -14001.386687
      conf/sym  1111111     Coeff  Weight
             1  222uuuu  -0.16627 0.02765
             3  22uu2uu   0.15797 0.02495
             4  22uuu2u   0.06910 0.00477
             7  2u2u2uu   0.24821 0.06161
             8  2u2uu2u  -0.08710 0.00759
             9  2u2uuu2   0.06672 0.00445
            10  u222uuu  -0.28065 0.07876
            11  u22u2uu  -0.31932 0.10196
            12  u22uu2u  -0.13766 0.01895
            13  u22uuu2   0.41908 0.17563
            14  2uu22uu   0.22325 0.04984
            15  2uu2u2u  -0.06262 0.00392
            17  2uu2uu2   0.07003 0.00490
            18  2uuu2u2  -0.15787 0.02492
            19  2uuuu22  -0.07447 0.00555
            20  u2u22uu  -0.08160 0.00666
            21  u2u2u2u   0.11674 0.01363
            22  u2uu22u   0.13712 0.01880
            23  u2u2uu2  -0.07674 0.00589
            24  u2uu2u2   0.37614 0.14148
            25  u2uuu22  -0.11349 0.01288
            26  uu222uu  -0.09704 0.00942
            27  uu22u2u  -0.11132 0.01239
            28  uu2u22u   0.12658 0.01602
            29  uu22uu2   0.19373 0.03753
            30  uu2u2u2   0.28039 0.07862
            31  uu2uu22   0.06911 0.00478
            32  uuu222u  -0.10486 0.01099
            33  uuu22u2   0.12838 0.01648
            34  uuu2u22   0.06513 0.00424
            35  uuuu222  -0.11131 0.01239

      printout of CI-coefficients larger than  0.05 for root  8
      energy=  -14001.386318
      conf/sym  1111111     Coeff  Weight
             1  222uuuu   0.17454 0.03047
             2  22u2uuu  -0.06876 0.00473
             3  22uu2uu  -0.25740 0.06625
             4  22uuu2u  -0.10357 0.01073
             5  22uuuu2  -0.22993 0.05287
             7  2u2u2uu   0.18325 0.03358
             9  2u2uuu2   0.07695 0.00592
            10  u222uuu   0.09944 0.00989
            12  u22uu2u   0.08344 0.00696
            13  u22uuu2  -0.11312 0.01280
            14  2uu22uu   0.21800 0.04752
            15  2uu2u2u  -0.45403 0.20614
            16  2uuu22u   0.24254 0.05882
            17  2uu2uu2  -0.07341 0.00539
            18  2uuu2u2   0.09689 0.00939
            22  u2uu22u  -0.23290 0.05424
            23  u2u2uu2   0.12485 0.01559
            25  u2uuu22  -0.30196 0.09118
            26  uu222uu  -0.05664 0.00321
            27  uu22u2u  -0.11533 0.01330
            28  uu2u22u   0.16090 0.02589
            29  uu22uu2   0.20979 0.04401
            30  uu2u2u2  -0.17841 0.03183
            31  uu2uu22   0.14537 0.02113
            32  uuu222u  -0.05868 0.00344
            33  uuu22u2   0.29674 0.08805
            34  uuu2u22   0.11886 0.01413
            35  uuuu222   0.15826 0.02505

      printout of CI-coefficients larger than  0.05 for root  9
      energy=  -14001.386219
      conf/sym  1111111     Coeff  Weight
             1  222uuuu   0.08695 0.00756
             2  22u2uuu   0.14483 0.02098
             3  22uu2uu   0.16582 0.02749
             7  2u2u2uu   0.21116 0.04459
             8  2u2uu2u   0.10355 0.01072
             9  2u2uuu2  -0.09281 0.00861
            10  u222uuu   0.06884 0.00474
            11  u22u2uu  -0.26050 0.06786
            13  u22uuu2  -0.20955 0.04391
            14  2uu22uu   0.08196 0.00672
            15  2uu2u2u   0.12033 0.01448
            16  2uuu22u   0.12151 0.01476
            17  2uu2uu2  -0.05004 0.00250
            20  u2u22uu  -0.18339 0.03363
            21  u2u2u2u   0.16069 0.02582
            22  u2uu22u   0.21641 0.04683
            24  u2uu2u2  -0.24479 0.05992
            25  u2uuu22   0.17956 0.03224
            26  uu222uu  -0.30526 0.09318
            27  uu22u2u  -0.21772 0.04740
            28  uu2u22u   0.22531 0.05077
            29  uu22uu2   0.23134 0.05352
            30  uu2u2u2  -0.15391 0.02369
            31  uu2uu22   0.05563 0.00310
            32  uuu222u   0.06218 0.00387
            33  uuu22u2  -0.19270 0.03713
            34  uuu2u22  -0.39716 0.15773
            35  uuuu222   0.22088 0.04879

      printout of CI-coefficients larger than  0.05 for root 10
      energy=  -14001.386188
      conf/sym  1111111     Coeff  Weight
             1  222uuuu  -0.11247 0.01265
             3  22uu2uu   0.16860 0.02843
             4  22uuu2u  -0.33909 0.11499
             5  22uuuu2  -0.15852 0.02513
             6  2u22uuu   0.21260 0.04520
             7  2u2u2uu  -0.17761 0.03155
            11  u22u2uu   0.23231 0.05397
            13  u22uuu2  -0.29357 0.08619
            14  2uu22uu   0.24495 0.06000
            15  2uu2u2u   0.06874 0.00473
            17  2uu2uu2   0.15668 0.02455
            18  2uuu2u2  -0.05356 0.00287
            23  u2u2uu2   0.28881 0.08341
            24  u2uu2u2   0.48394 0.23420
            25  u2uuu22   0.23335 0.05445
            28  uu2u22u   0.09146 0.00837
            29  uu22uu2   0.15226 0.02318
            31  uu2uu22   0.09948 0.00990
            32  uuu222u   0.22065 0.04868
            33  uuu22u2  -0.13566 0.01840
            34  uuu2u22   0.10913 0.01191
            35  uuuu222  -0.05287 0.00280

      printout of CI-coefficients larger than  0.05 for root 11
      energy=  -14001.385545
      conf/sym  1111111     Coeff  Weight
             3  22uu2uu  -0.13527 0.01830
             4  22uuu2u  -0.11646 0.01356
             5  22uuuu2   0.10704 0.01146
             6  2u22uuu   0.06553 0.00429
             7  2u2u2uu  -0.05427 0.00295
            10  u222uuu  -0.20365 0.04147
            11  u22u2uu  -0.33965 0.11536
            13  u22uuu2   0.22999 0.05289
            14  2uu22uu   0.19816 0.03927
            15  2uu2u2u   0.08308 0.00690
            16  2uuu22u   0.20080 0.04032
            20  u2u22uu  -0.09869 0.00974
            22  u2uu22u  -0.14612 0.02135
            23  u2u2uu2  -0.08496 0.00722
            24  u2uu2u2  -0.24392 0.05950
            25  u2uuu22   0.13995 0.01959
            26  uu222uu   0.11539 0.01331
            27  uu22u2u   0.19593 0.03839
            28  uu2u22u   0.09487 0.00900
            30  uu2u2u2  -0.30043 0.09026
            31  uu2uu22  -0.11177 0.01249
            32  uuu222u   0.43682 0.19081
            33  uuu22u2  -0.15171 0.02302
            34  uuu2u22   0.39049 0.15248

      printout of CI-coefficients larger than  0.05 for root 12
      energy=  -14001.385136
      conf/sym  1111111     Coeff  Weight
             1  222uuuu  -0.07283 0.00530
             3  22uu2uu   0.10164 0.01033
             4  22uuu2u   0.11347 0.01288
             6  2u22uuu   0.08779 0.00771
             8  2u2uu2u  -0.05615 0.00315
             9  2u2uuu2   0.06671 0.00445
            10  u222uuu  -0.13320 0.01774
            11  u22u2uu   0.07337 0.00538
            12  u22uu2u   0.06330 0.00401
            14  2uu22uu   0.07795 0.00608
            18  2uuu2u2  -0.10983 0.01206
            19  2uuuu22  -0.06458 0.00417
            20  u2u22uu  -0.16334 0.02668
            21  u2u2u2u  -0.18904 0.03574
            22  u2uu22u   0.13934 0.01942
            23  u2u2uu2   0.19755 0.03903
            25  u2uuu22  -0.18499 0.03422
            26  uu222uu   0.25838 0.06676
            27  uu22u2u   0.25158 0.06329
            28  uu2u22u   0.21340 0.04554
            29  uu22uu2  -0.34454 0.11871
            30  uu2u2u2   0.15486 0.02398
            31  uu2uu22   0.16489 0.02719
            32  uuu222u   0.14110 0.01991
            34  uuu2u22  -0.17209 0.02962
            35  uuuu222   0.59304 0.35170

      printout of CI-coefficients larger than  0.05 for root 13
      energy=  -14001.384861
      conf/sym  1111111     Coeff  Weight
             1  222uuuu   0.06829 0.00466
             5  22uuuu2   0.09754 0.00951
             6  2u22uuu  -0.06806 0.00463
             8  2u2uu2u   0.05413 0.00293
            12  u22uu2u   0.16967 0.02879
            13  u22uuu2   0.11883 0.01412
            17  2uu2uu2   0.11224 0.01260
            18  2uuu2u2  -0.07796 0.00608
            19  2uuuu22  -0.06675 0.00446
            20  u2u22uu  -0.06347 0.00403
            21  u2u2u2u  -0.12405 0.01539
            22  u2uu22u  -0.40234 0.16188
            23  u2u2uu2  -0.10539 0.01111
            24  u2uu2u2   0.18410 0.03389
            25  u2uuu22  -0.21534 0.04637
            26  uu222uu   0.12637 0.01597
            27  uu22u2u  -0.16516 0.02728
            28  uu2u22u   0.31890 0.10170
            29  uu22uu2  -0.17963 0.03227
            30  uu2u2u2  -0.15431 0.02381
            31  uu2uu22   0.19067 0.03635
            33  uuu22u2  -0.44965 0.20218
            34  uuu2u22  -0.31549 0.09954
            35  uuuu222  -0.30652 0.09395

      printout of CI-coefficients larger than  0.05 for root 14
      energy=  -14001.306549
      conf/sym  1111111     Coeff  Weight
             1  222uuuu  -0.12135 0.01473
             2  22u2uuu   0.35906 0.12893
             3  22uu2uu  -0.08208 0.00674
             5  22uuuu2  -0.06264 0.00392
             6  2u22uuu  -0.25428 0.06466
             8  2u2uu2u   0.23400 0.05476
             9  2u2uuu2   0.10684 0.01141
            10  u222uuu  -0.11193 0.01253
            11  u22u2uu   0.15421 0.02378
            12  u22uu2u  -0.37369 0.13965
            14  2uu22uu   0.09649 0.00931
            15  2uu2u2u  -0.10618 0.01127
            16  2uuu22u  -0.26016 0.06768
            17  2uu2uu2   0.11959 0.01430
            18  2uuu2u2  -0.13516 0.01827
            19  2uuuu22   0.31543 0.09950
            20  u2u22uu  -0.12624 0.01594
            21  u2u2u2u  -0.17335 0.03005
            22  u2uu22u  -0.18486 0.03417
            23  u2u2uu2  -0.21840 0.04770
            24  u2uu2u2  -0.05162 0.00266
            25  u2uuu22   0.07575 0.00574
            26  uu222uu  -0.29253 0.08557
            28  uu2u22u   0.07496 0.00562
            29  uu22uu2  -0.23817 0.05673
            31  uu2uu22   0.08015 0.00642
            33  uuu22u2   0.14373 0.02066

      printout of CI-coefficients larger than  0.05 for root 15
      energy=  -14001.305802
      conf/sym  1111111     Coeff  Weight
             1  222uuuu   0.32087 0.10296
             2  22u2uuu   0.19911 0.03965
             3  22uu2uu   0.13305 0.01770
             4  22uuu2u  -0.11252 0.01266
             5  22uuuu2   0.09641 0.00930
             6  2u22uuu   0.09015 0.00813
             9  2u2uuu2   0.26125 0.06825
            10  u222uuu  -0.10403 0.01082
            12  u22uu2u  -0.11795 0.01391
            14  2uu22uu   0.16553 0.02740
            15  2uu2u2u  -0.06182 0.00382
            16  2uuu22u   0.32512 0.10570
            17  2uu2uu2  -0.05769 0.00333
            18  2uuu2u2   0.14683 0.02156
            19  2uuuu22   0.24629 0.06066
            20  u2u22uu   0.11124 0.01238
            21  u2u2u2u   0.33035 0.10913
            22  u2uu22u  -0.16617 0.02761
            23  u2u2uu2  -0.08921 0.00796
            25  u2uuu22   0.12724 0.01619
            26  uu222uu   0.28726 0.08252
            28  uu2u22u  -0.16697 0.02788
            29  uu22uu2  -0.20582 0.04236
            30  uu2u2u2   0.14623 0.02138
            31  uu2uu22  -0.07879 0.00621
            33  uuu22u2   0.15036 0.02261
            34  uuu2u22  -0.32530 0.10582
            35  uuuu222  -0.06370 0.00406

      printout of CI-coefficients larger than  0.05 for root 16
      energy=  -14001.305777
      conf/sym  1111111     Coeff  Weight
             1  222uuuu  -0.16422 0.02697
             2  22u2uuu  -0.16951 0.02873
             3  22uu2uu   0.33378 0.11141
             4  22uuu2u  -0.07950 0.00632
             6  2u22uuu  -0.22024 0.04851
             7  2u2u2uu  -0.10265 0.01054
             8  2u2uu2u  -0.27689 0.07667
             9  2u2uuu2   0.25914 0.06715
            10  u222uuu  -0.10592 0.01122
            11  u22u2uu   0.26111 0.06818
            13  u22uuu2  -0.14227 0.02024
            14  2uu22uu   0.26226 0.06878
            15  2uu2u2u   0.05228 0.00273
            16  2uuu22u  -0.10010 0.01002
            18  2uuu2u2  -0.16918 0.02862
            21  u2u2u2u   0.07455 0.00556
            22  u2uu22u   0.07977 0.00636
            23  u2u2uu2  -0.29735 0.08842
            24  u2uu2u2  -0.22696 0.05151
            25  u2uuu22  -0.27840 0.07750
            26  uu222uu   0.16612 0.02760
            28  uu2u22u  -0.08279 0.00685
            29  uu22uu2   0.20533 0.04216
            30  uu2u2u2  -0.29366 0.08623
            31  uu2uu22   0.07361 0.00542
            33  uuu22u2   0.06450 0.00416
            35  uuuu222  -0.06005 0.00361

      printout of CI-coefficients larger than  0.05 for root 17
      energy=  -14001.305632
      conf/sym  1111111     Coeff  Weight
             1  222uuuu  -0.05935 0.00352
             3  22uu2uu  -0.13113 0.01720
             4  22uuu2u  -0.33820 0.11438
             5  22uuuu2   0.06066 0.00368
             6  2u22uuu   0.13081 0.01711
             7  2u2u2uu  -0.31060 0.09647
             8  2u2uu2u   0.12243 0.01499
             9  2u2uuu2   0.07931 0.00629
            10  u222uuu  -0.26859 0.07214
            12  u22uu2u   0.07932 0.00629
            13  u22uuu2   0.24682 0.06092
            14  2uu22uu   0.10727 0.01151
            17  2uu2uu2   0.33009 0.10896
            18  2uuu2u2   0.11194 0.01253
            19  2uuuu22  -0.09371 0.00878
            20  u2u22uu   0.22823 0.05209
            21  u2u2u2u  -0.12688 0.01610
            24  u2uu2u2  -0.27436 0.07528
            25  u2uuu22   0.05390 0.00290
            26  uu222uu  -0.09940 0.00988
            27  uu22u2u  -0.18976 0.03601
            28  uu2u22u  -0.16184 0.02619
            29  uu22uu2   0.08324 0.00693
            30  uu2u2u2   0.08758 0.00767
            31  uu2uu22   0.24497 0.06001
            32  uuu222u  -0.26739 0.07150
            34  uuu2u22  -0.15370 0.02362
            35  uuuu222   0.22301 0.04973

      printout of CI-coefficients larger than  0.05 for root 18
      energy=  -14001.305577
      conf/sym  1111111     Coeff  Weight
             2  22u2uuu  -0.08646 0.00747
             3  22uu2uu  -0.16098 0.02592
             4  22uuu2u   0.12701 0.01613
             5  22uuuu2   0.27063 0.07324
             6  2u22uuu  -0.05491 0.00302
             7  2u2u2uu   0.07850 0.00616
             8  2u2uu2u   0.22133 0.04899
             9  2u2uuu2   0.06724 0.00452
            10  u222uuu  -0.18916 0.03578
            11  u22u2uu   0.08705 0.00758
            12  u22uu2u   0.22954 0.05269
            13  u22uuu2  -0.28566 0.08160
            14  2uu22uu   0.18571 0.03449
            15  2uu2u2u   0.14314 0.02049
            16  2uuu22u   0.09282 0.00862
            17  2uu2uu2  -0.05786 0.00335
            18  2uuu2u2  -0.11752 0.01381
            19  2uuuu22  -0.12727 0.01620
            20  u2u22uu  -0.27252 0.07427
            22  u2uu22u  -0.21938 0.04813
            23  u2u2uu2   0.06447 0.00416
            24  u2uu2u2  -0.12597 0.01587
            25  u2uuu22   0.21234 0.04509
            27  uu22u2u   0.33097 0.10954
            29  uu22uu2   0.19818 0.03927
            30  uu2u2u2   0.31742 0.10075
            31  uu2uu22   0.07321 0.00536
            32  uuu222u  -0.17971 0.03229
            33  uuu22u2   0.11998 0.01440
            35  uuuu222  -0.21511 0.04627

      printout of CI-coefficients larger than  0.05 for root 19
      energy=  -14001.305385
      conf/sym  1111111     Coeff  Weight
             1  222uuuu   0.27771 0.07712
             2  22u2uuu  -0.15587 0.02430
             4  22uuu2u  -0.05961 0.00355
             5  22uuuu2  -0.18504 0.03424
             6  2u22uuu  -0.22019 0.04848
             7  2u2u2uu  -0.17499 0.03062
             9  2u2uuu2  -0.06251 0.00391
            10  u222uuu  -0.17256 0.02978
            13  u22uuu2  -0.10880 0.01184
            14  2uu22uu  -0.18581 0.03453
            15  2uu2u2u  -0.24104 0.05810
            16  2uuu22u   0.14527 0.02110
            17  2uu2uu2   0.16199 0.02624
            18  2uuu2u2  -0.29416 0.08653
            20  u2u22uu  -0.10402 0.01082
            21  u2u2u2u   0.19987 0.03995
            22  u2uu22u   0.24558 0.06031
            23  u2u2uu2  -0.08599 0.00739
            24  u2uu2u2  -0.10201 0.01041
            25  u2uuu22   0.25533 0.06519
            26  uu222uu   0.19717 0.03888
            27  uu22u2u  -0.08214 0.00675
            28  uu2u22u   0.27136 0.07363
            29  uu22uu2  -0.14809 0.02193
            30  uu2u2u2   0.10303 0.01062
            31  uu2uu22   0.13922 0.01938
            32  uuu222u  -0.23390 0.05471
            33  uuu22u2  -0.10130 0.01026
            34  uuu2u22   0.27263 0.07433

      printout of CI-coefficients larger than  0.05 for root 20
      energy=  -14001.305236
      conf/sym  1111111     Coeff  Weight
             1  222uuuu   0.11945 0.01427
             4  22uuu2u   0.05180 0.00268
             5  22uuuu2   0.31662 0.10025
             6  2u22uuu  -0.21323 0.04547
             7  2u2u2uu  -0.09097 0.00828
             8  2u2uu2u   0.13512 0.01826
             9  2u2uuu2  -0.11858 0.01406
            10  u222uuu   0.13925 0.01939
            11  u22u2uu   0.29251 0.08556
            12  u22uu2u   0.16985 0.02885
            13  u22uuu2   0.14796 0.02189
            15  2uu2u2u   0.25168 0.06334
            16  2uuu22u   0.16880 0.02849
            17  2uu2uu2   0.05530 0.00306
            18  2uuu2u2  -0.20361 0.04146
            19  2uuuu22   0.07201 0.00519
            20  u2u22uu   0.20477 0.04193
            22  u2uu22u  -0.11840 0.01402
            23  u2u2uu2  -0.18368 0.03374
            24  u2uu2u2   0.17696 0.03132
            27  uu22u2u  -0.26692 0.07125
            28  uu2u22u   0.20272 0.04109
            29  uu22uu2   0.17446 0.03044
            30  uu2u2u2   0.07845 0.00615
            31  uu2uu22  -0.19548 0.03821
            32  uuu222u   0.14765 0.02180
            33  uuu22u2   0.20798 0.04326
            34  uuu2u22   0.12667 0.01605
            35  uuuu222   0.32669 0.10672

      printout of CI-coefficients larger than  0.05 for root 21
      energy=  -14001.305182
      conf/sym  1111111     Coeff  Weight
             2  22u2uuu   0.14275 0.02038
             3  22uu2uu   0.23182 0.05374
             4  22uuu2u  -0.07987 0.00638
             5  22uuuu2   0.11863 0.01407
             7  2u2u2uu  -0.13341 0.01780
             8  2u2uu2u  -0.15770 0.02487
             9  2u2uuu2  -0.25755 0.06633
            10  u222uuu  -0.07195 0.00518
            11  u22u2uu  -0.25783 0.06647
            13  u22uuu2  -0.11686 0.01366
            14  2uu22uu  -0.22358 0.04999
            15  2uu2u2u   0.28626 0.08194
            16  2uuu22u  -0.06658 0.00443
            17  2uu2uu2   0.06328 0.00400
            18  2uuu2u2   0.11269 0.01270
            19  2uuuu22   0.21879 0.04787
            21  u2u2u2u   0.19629 0.03853
            22  u2uu22u  -0.25212 0.06357
            23  u2u2uu2   0.23507 0.05526
            24  u2uu2u2  -0.07499 0.00562
            25  u2uuu22  -0.19532 0.03815
            27  uu22u2u   0.05155 0.00266
            28  uu2u22u   0.22291 0.04969
            30  uu2u2u2  -0.09489 0.00900
            31  uu2uu22   0.25150 0.06325
            32  uuu222u  -0.14978 0.02243
            33  uuu22u2   0.37248 0.13874
            34  uuu2u22   0.11931 0.01423
            35  uuuu222  -0.05746 0.00330

      printout of CI-coefficients larger than  0.05 for root 22
      energy=  -14001.260761
      conf/sym  1111111     Coeff  Weight
             1  222uuuu  -0.12392 0.01536
             2  22u2uuu  -0.50300 0.25301
             3  22uu2uu   0.20630 0.04256
             4  22uuu2u  -0.24827 0.06164
             5  22uuuu2   0.13455 0.01810
             7  2u2u2uu   0.08067 0.00651
            11  u22u2uu   0.07769 0.00604
            12  u22uu2u  -0.34095 0.11625
            14  2uu22uu  -0.07006 0.00491
            16  2uuu22u   0.17563 0.03085
            17  2uu2uu2  -0.25140 0.06320
            18  2uuu2u2   0.15513 0.02407
            19  2uuuu22  -0.26065 0.06794
            22  u2uu22u  -0.19569 0.03829
            25  u2uuu22   0.11568 0.01338
            26  uu222uu  -0.29314 0.08593
            27  uu22u2u  -0.07050 0.00497
            28  uu2u22u   0.09330 0.00870
            29  uu22uu2  -0.34169 0.11675
            32  uuu222u  -0.05162 0.00266
            34  uuu2u22   0.06461 0.00417

      printout of CI-coefficients larger than  0.05 for root 23
      energy=  -14001.259953
      conf/sym  1111111     Coeff  Weight
             2  22u2uuu  -0.30596 0.09361
             3  22uu2uu  -0.18038 0.03254
             4  22uuu2u   0.14233 0.02026
             5  22uuuu2   0.20468 0.04189
             6  2u22uuu  -0.10239 0.01048
             7  2u2u2uu  -0.25007 0.06253
             8  2u2uu2u   0.34268 0.11743
             9  2u2uuu2   0.17165 0.02946
            10  u222uuu   0.19096 0.03646
            11  u22u2uu  -0.11139 0.01241
            13  u22uuu2   0.09385 0.00881
            14  2uu22uu   0.21675 0.04698
            18  2uuu2u2  -0.10624 0.01129
            19  2uuuu22   0.24721 0.06112
            21  u2u2u2u   0.25495 0.06500
            22  u2uu22u   0.29178 0.08514
            23  u2u2uu2   0.28705 0.08240
            24  u2uu2u2   0.12758 0.01628
            25  u2uuu22  -0.12844 0.01650
            26  uu222uu  -0.09588 0.00919
            28  uu2u22u  -0.06646 0.00442
            29  uu22uu2  -0.19886 0.03954
            30  uu2u2u2  -0.24066 0.05792
            31  uu2uu22   0.10401 0.01082
            33  uuu22u2   0.06174 0.00381
            34  uuu2u22  -0.08586 0.00737
            35  uuuu222  -0.09787 0.00958

      printout of CI-coefficients larger than  0.05 for root 24
      energy=  -14001.259472
      conf/sym  1111111     Coeff  Weight
             3  22uu2uu  -0.17176 0.02950
             4  22uuu2u  -0.18252 0.03331
             5  22uuuu2  -0.18652 0.03479
             6  2u22uuu   0.21875 0.04785
             7  2u2u2uu   0.35473 0.12583
             8  2u2uu2u   0.35026 0.12268
             9  2u2uuu2   0.11292 0.01275
            11  u22u2uu   0.07286 0.00531
            12  u22uu2u  -0.11563 0.01337
            13  u22uuu2   0.05455 0.00298
            14  2uu22uu  -0.05912 0.00349
            15  2uu2u2u   0.32692 0.10688
            16  2uuu22u  -0.31273 0.09780
            17  2uu2uu2  -0.19283 0.03718
            18  2uuu2u2  -0.09784 0.00957
            19  2uuuu22  -0.09446 0.00892
            20  u2u22uu   0.12855 0.01653
            21  u2u2u2u   0.28922 0.08365
            23  u2u2uu2  -0.11360 0.01290
            26  uu222uu   0.34593 0.11967
            28  uu2u22u   0.11986 0.01437
            29  uu22uu2   0.05077 0.00258
            30  uu2u2u2  -0.06414 0.00411
            31  uu2uu22   0.11181 0.01250
            32  uuu222u  -0.14407 0.02076
            34  uuu2u22   0.09525 0.00907
            35  uuuu222   0.07766 0.00603

      printout of CI-coefficients larger than  0.05 for root 25
      energy=  -14001.259375
      conf/sym  1111111     Coeff  Weight
             2  22u2uuu  -0.12262 0.01504
             5  22uuuu2   0.17658 0.03118
             6  2u22uuu   0.08849 0.00783
             7  2u2u2uu   0.12190 0.01486
             8  2u2uu2u   0.08303 0.00689
             9  2u2uuu2  -0.34393 0.11829
            10  u222uuu  -0.08064 0.00650
            11  u22u2uu  -0.08012 0.00642
            12  u22uu2u  -0.30510 0.09309
            13  u22uuu2  -0.18065 0.03264
            15  2uu2u2u  -0.20941 0.04385
            16  2uuu22u   0.05771 0.00333
            17  2uu2uu2   0.21236 0.04510
            18  2uuu2u2  -0.34095 0.11625
            20  u2u22uu   0.36484 0.13311
            21  u2u2u2u   0.09544 0.00911
            22  u2uu22u  -0.13607 0.01851
            25  u2uuu22  -0.20144 0.04058
            27  uu22u2u   0.34597 0.11970
            28  uu2u22u  -0.09758 0.00952
            29  uu22uu2   0.07977 0.00636
            30  uu2u2u2  -0.07714 0.00595
            31  uu2uu22  -0.21433 0.04594
            32  uuu222u  -0.12300 0.01513
            33  uuu22u2  -0.15890 0.02525
            34  uuu2u22  -0.10678 0.01140
            35  uuuu222   0.11752 0.01381

      printout of CI-coefficients larger than  0.05 for root 26
      energy=  -14001.259253
      conf/sym  1111111     Coeff  Weight
             1  222uuuu   0.07268 0.00528
             3  22uu2uu   0.16721 0.02796
             5  22uuuu2  -0.06564 0.00431
             6  2u22uuu   0.06200 0.00384
             7  2u2u2uu   0.10681 0.01141
             9  2u2uuu2  -0.36639 0.13424
            11  u22u2uu   0.36332 0.13200
            12  u22uu2u  -0.12758 0.01628
            13  u22uuu2   0.42674 0.18210
            14  2uu22uu   0.18753 0.03517
            16  2uuu22u   0.07457 0.00556
            18  2uuu2u2  -0.06438 0.00414
            19  2uuuu22   0.05014 0.00251
            20  u2u22uu  -0.11376 0.01294
            21  u2u2u2u  -0.18975 0.03600
            22  u2uu22u   0.10106 0.01021
            23  u2u2uu2   0.33184 0.11012
            24  u2uu2u2  -0.26188 0.06858
            25  u2uuu22   0.11334 0.01285
            26  uu222uu   0.14573 0.02124
            28  uu2u22u   0.11486 0.01319
            30  uu2u2u2  -0.13939 0.01943
            31  uu2uu22  -0.11794 0.01391
            32  uuu222u  -0.07785 0.00606
            33  uuu22u2   0.14555 0.02119
            34  uuu2u22  -0.11515 0.01326
            35  uuuu222  -0.26194 0.06861

      printout of CI-coefficients larger than  0.05 for root 27
      energy=  -14001.259194
      conf/sym  1111111     Coeff  Weight
             1  222uuuu  -0.06360 0.00405
             2  22u2uuu   0.06087 0.00371
             4  22uuu2u  -0.08996 0.00809
             5  22uuuu2  -0.12404 0.01539
             6  2u22uuu   0.09012 0.00812
             8  2u2uu2u  -0.18494 0.03420
             9  2u2uuu2  -0.05828 0.00340
            10  u222uuu   0.06129 0.00376
            11  u22u2uu   0.07255 0.00526
            12  u22uu2u   0.24182 0.05848
            13  u22uuu2   0.14583 0.02127
            14  2uu22uu   0.10342 0.01070
            15  2uu2u2u   0.14489 0.02099
            16  2uuu22u   0.24789 0.06145
            17  2uu2uu2  -0.23747 0.05639
            19  2uuuu22   0.31394 0.09856
            23  u2u2uu2  -0.25684 0.06597
            24  u2uu2u2   0.19941 0.03977
            25  u2uuu22   0.11260 0.01268
            26  uu222uu  -0.20003 0.04001
            27  uu22u2u   0.31494 0.09919
            29  uu22uu2  -0.05728 0.00328
            30  uu2u2u2  -0.20431 0.04174
            32  uuu222u  -0.48328 0.23356
            33  uuu22u2  -0.15374 0.02364
            35  uuuu222   0.13507 0.01824

      printout of CI-coefficients larger than  0.05 for root 28
      energy=  -14001.259124
      conf/sym  1111111     Coeff  Weight
             2  22u2uuu  -0.13337 0.01779
             3  22uu2uu  -0.22721 0.05162
             4  22uuu2u  -0.15008 0.02252
             5  22uuuu2   0.16136 0.02604
             6  2u22uuu  -0.08863 0.00786
             7  2u2u2uu   0.28903 0.08354
             8  2u2uu2u  -0.06539 0.00428
             9  2u2uuu2  -0.08669 0.00751
            10  u222uuu  -0.43771 0.19159
            11  u22u2uu   0.22892 0.05241
            12  u22uu2u   0.11858 0.01406
            13  u22uuu2  -0.11357 0.01290
            16  2uuu22u  -0.13099 0.01716
            17  2uu2uu2   0.15048 0.02264
            18  2uuu2u2   0.42494 0.18057
            19  2uuuu22   0.21825 0.04763
            20  u2u22uu  -0.09159 0.00839
            21  u2u2u2u   0.12447 0.01549
            22  u2uu22u   0.23018 0.05298
            24  u2uu2u2   0.05959 0.00355
            25  u2uuu22  -0.16491 0.02720
            26  uu222uu  -0.06105 0.00373
            28  uu2u22u   0.13400 0.01796
            29  uu22uu2  -0.06879 0.00473
            31  uu2uu22  -0.30192 0.09115
            33  uuu22u2  -0.08925 0.00797

      printout of CI-coefficients larger than  0.05 for root 29
      energy=  -14001.258626
      conf/sym  1111111     Coeff  Weight
             1  222uuuu   0.09966 0.00993
             2  22u2uuu   0.11339 0.01286
             3  22uu2uu   0.06762 0.00457
             6  2u22uuu  -0.08882 0.00789
             7  2u2u2uu  -0.22887 0.05238
             9  2u2uuu2  -0.08169 0.00667
            10  u222uuu  -0.08103 0.00657
            11  u22u2uu  -0.07122 0.00507
            12  u22uu2u  -0.08965 0.00804
            14  2uu22uu   0.19625 0.03851
            15  2uu2u2u   0.06040 0.00365
            16  2uuu22u  -0.13693 0.01875
            17  2uu2uu2  -0.23480 0.05513
            20  u2u22uu  -0.36075 0.13014
            21  u2u2u2u   0.09429 0.00889
            22  u2uu22u  -0.26248 0.06889
            23  u2u2uu2   0.19209 0.03690
            25  u2uuu22  -0.17151 0.02942
            26  uu222uu   0.07602 0.00578
            27  uu22u2u  -0.27237 0.07418
            28  uu2u22u  -0.21770 0.04739
            30  uu2u2u2   0.07472 0.00558
            31  uu2uu22  -0.35001 0.12250
            32  uuu222u  -0.28454 0.08096
            33  uuu22u2  -0.27029 0.07306
            34  uuu2u22   0.16693 0.02787
            35  uuuu222   0.22159 0.04910

      printout of CI-coefficients larger than  0.05 for root 30
      energy=  -14001.258340
      conf/sym  1111111     Coeff  Weight
             1  222uuuu  -0.08409 0.00707
             2  22u2uuu  -0.20150 0.04060
             3  22uu2uu   0.18777 0.03526
             4  22uuu2u   0.26579 0.07064
             5  22uuuu2  -0.26395 0.06967
             6  2u22uuu  -0.08875 0.00788
             7  2u2u2uu  -0.05827 0.00340
             8  2u2uu2u   0.22875 0.05232
             9  2u2uuu2   0.06968 0.00485
            10  u222uuu  -0.15992 0.02558
            11  u22u2uu  -0.19677 0.03872
            13  u22uuu2  -0.05386 0.00290
            17  2uu2uu2   0.21149 0.04473
            18  2uuu2u2   0.20430 0.04174
            19  2uuuu22  -0.09099 0.00828
            21  u2u2u2u  -0.14851 0.02205
            22  u2uu22u  -0.11040 0.01219
            23  u2u2uu2  -0.07635 0.00583
            24  u2uu2u2   0.19203 0.03687
            25  u2uuu22   0.28956 0.08384
            26  uu222uu   0.20437 0.04177
            28  uu2u22u   0.07490 0.00561
            30  uu2u2u2  -0.34336 0.11790
            31  uu2uu22  -0.28788 0.08288
            32  uuu222u  -0.18064 0.03263
            33  uuu22u2   0.23681 0.05608
            34  uuu2u22  -0.17895 0.03202
            35  uuuu222   0.10704 0.01146

      printout of CI-coefficients larger than  0.05 for root 31
      energy=  -14001.178838
      conf/sym  1111111     Coeff  Weight
             2  22u2uuu  -0.08861 0.00785
             5  22uuuu2   0.07404 0.00548
             7  2u2u2uu   0.05206 0.00271
             8  2u2uu2u   0.09964 0.00993
            10  u222uuu  -0.08054 0.00649
            11  u22u2uu  -0.17503 0.03064
            12  u22uu2u  -0.25818 0.06666
            13  u22uuu2  -0.27555 0.07593
            15  2uu2u2u   0.20807 0.04329
            16  2uuu22u   0.23975 0.05748
            17  2uu2uu2  -0.16232 0.02635
            19  2uuuu22   0.31828 0.10130
            20  u2u22uu   0.12680 0.01608
            21  u2u2u2u  -0.55410 0.30703
            22  u2uu22u   0.18487 0.03418
            25  u2uuu22  -0.10734 0.01152
            26  uu222uu   0.25414 0.06459
            27  uu22u2u  -0.26862 0.07216
            29  uu22uu2   0.06967 0.00485
            30  uu2u2u2   0.07109 0.00505
            31  uu2uu22   0.10862 0.01180
            32  uuu222u  -0.06360 0.00405
            33  uuu22u2  -0.06356 0.00404
            34  uuu2u22   0.10536 0.01110
            35  uuuu222  -0.10424 0.01087

      printout of CI-coefficients larger than  0.05 for root 32
      energy=  -14001.178607
      conf/sym  1111111     Coeff  Weight
             1  222uuuu   0.05107 0.00261
             2  22u2uuu  -0.10453 0.01093
             4  22uuu2u  -0.05977 0.00357
             5  22uuuu2   0.11299 0.01277
             6  2u22uuu   0.07557 0.00571
             8  2u2uu2u   0.16502 0.02723
             9  2u2uuu2  -0.29393 0.08639
            10  u222uuu   0.10429 0.01088
            11  u22u2uu   0.07999 0.00640
            12  u22uu2u  -0.15625 0.02441
            13  u22uuu2   0.08741 0.00764
            14  2uu22uu  -0.18281 0.03342
            16  2uuu22u   0.10070 0.01014
            17  2uu2uu2   0.20705 0.04287
            18  2uuu2u2   0.16446 0.02705
            20  u2u22uu  -0.52356 0.27411
            21  u2u2u2u   0.06018 0.00362
            23  u2u2uu2  -0.28159 0.07929
            24  u2uu2u2   0.16939 0.02869
            25  u2uuu22  -0.05117 0.00262
            26  uu222uu   0.15116 0.02285
            27  uu22u2u   0.06536 0.00427
            28  uu2u22u  -0.36257 0.13145
            29  uu22uu2   0.15312 0.02345
            30  uu2u2u2  -0.07555 0.00571
            31  uu2uu22   0.29295 0.08582
            32  uuu222u   0.08295 0.00688
            35  uuuu222   0.12159 0.01478

      printout of CI-coefficients larger than  0.05 for root 33
      energy=  -14001.178394
      conf/sym  1111111     Coeff  Weight
             4  22uuu2u   0.19153 0.03668
             5  22uuuu2  -0.06776 0.00459
             6  2u22uuu  -0.05267 0.00277
             7  2u2u2uu   0.21193 0.04492
             8  2u2uu2u   0.06581 0.00433
             9  2u2uuu2  -0.24597 0.06050
            10  u222uuu  -0.42734 0.18262
            11  u22u2uu   0.07865 0.00619
            12  u22uu2u   0.24105 0.05811
            13  u22uuu2  -0.06092 0.00371
            16  2uuu22u   0.05755 0.00331
            17  2uu2uu2  -0.19588 0.03837
            18  2uuu2u2  -0.19633 0.03854
            19  2uuuu22  -0.11785 0.01389
            20  u2u22uu   0.16551 0.02739
            21  u2u2u2u   0.06979 0.00487
            23  u2u2uu2   0.07468 0.00558
            24  u2uu2u2   0.07094 0.00503
            25  u2uuu22   0.09630 0.00927
            26  uu222uu  -0.10933 0.01195
            27  uu22u2u  -0.24002 0.05761
            28  uu2u22u  -0.40676 0.16545
            29  uu22uu2  -0.23076 0.05325
            30  uu2u2u2  -0.23415 0.05483
            31  uu2uu22   0.27159 0.07376
            32  uuu222u   0.14111 0.01991
            33  uuu22u2   0.06128 0.00376
            34  uuu2u22   0.06298 0.00397

      printout of CI-coefficients larger than  0.05 for root 34
      energy=  -14001.177921
      conf/sym  1111111     Coeff  Weight
             1  222uuuu   0.05225 0.00273
             3  22uu2uu   0.14217 0.02021
             4  22uuu2u   0.24536 0.06020
             7  2u2u2uu  -0.16712 0.02793
             8  2u2uu2u   0.14945 0.02234
             9  2u2uuu2  -0.36616 0.13407
            14  2uu22uu   0.44805 0.20075
            15  2uu2u2u  -0.11611 0.01348
            16  2uuu22u  -0.17267 0.02982
            17  2uu2uu2  -0.13543 0.01834
            18  2uuu2u2   0.41870 0.17531
            20  u2u22uu   0.23160 0.05364
            21  u2u2u2u   0.11143 0.01242
            23  u2u2uu2  -0.26260 0.06896
            24  u2uu2u2  -0.05097 0.00260
            27  uu22u2u   0.06609 0.00437
            28  uu2u22u   0.17856 0.03188
            30  uu2u2u2   0.18949 0.03591
            31  uu2uu22   0.21611 0.04670
            33  uuu22u2  -0.12001 0.01440
            34  uuu2u22   0.09692 0.00939

      printout of CI-coefficients larger than  0.05 for root 35
      energy=  -14001.177872
      conf/sym  1111111     Coeff  Weight
             1  222uuuu   0.11897 0.01415
             2  22u2uuu   0.24584 0.06044
             3  22uu2uu  -0.26447 0.06994
             4  22uuu2u  -0.13499 0.01822
             5  22uuuu2   0.44643 0.19930
             7  2u2u2uu  -0.09963 0.00993
             8  2u2uu2u  -0.23632 0.05585
             9  2u2uuu2  -0.10131 0.01026
            11  u22u2uu  -0.08321 0.00692
            12  u22uu2u  -0.13831 0.01913
            13  u22uuu2  -0.09362 0.00877
            14  2uu22uu   0.11798 0.01392
            15  2uu2u2u  -0.11841 0.01402
            16  2uuu22u  -0.19325 0.03734
            17  2uu2uu2  -0.16567 0.02745
            19  2uuuu22  -0.35906 0.12892
            21  u2u2u2u  -0.11768 0.01385
            22  u2uu22u   0.16428 0.02699
            23  u2u2uu2  -0.07386 0.00545
            24  u2uu2u2   0.20826 0.04337
            25  u2uuu22   0.19666 0.03867
            26  uu222uu   0.14082 0.01983
            28  uu2u22u   0.08825 0.00779
            29  uu22uu2  -0.08049 0.00648
            30  uu2u2u2  -0.27982 0.07830
            32  uuu222u  -0.15568 0.02424
            33  uuu22u2   0.18388 0.03381
            34  uuu2u22  -0.05401 0.00292

      Natural orbitals and occupation numbers for root  1
      sym 1:   1.838670   1.894066   1.817270   1.162789   1.042999   1.177183   1.067022

      Natural orbitals and occupation numbers for root  2
      sym 1:   1.742931   1.209631   1.788562   1.896043   1.015227   1.094747   1.252858

      Natural orbitals and occupation numbers for root  3
      sym 1:   1.624859   1.602866   1.728725   1.461967   1.126954   1.297518   1.157112

      Natural orbitals and occupation numbers for root  4
      sym 1:   1.905899   1.704266   1.293136   1.682262   1.080778   1.267563   1.066097

      Natural orbitals and occupation numbers for root  5
      sym 1:   1.923534   1.070438   1.643340   1.349585   1.307056   1.687014   1.019033

      Natural orbitals and occupation numbers for root  6
      sym 1:   1.881891   1.212555   1.117471   1.716159   1.016937   1.771220   1.283766

      Natural orbitals and occupation numbers for root  7
      sym 1:   1.186113   1.804777   1.357511   1.239935   1.637865   1.090131   1.683667

      Natural orbitals and occupation numbers for root  8
      sym 1:   1.561873   1.329812   1.038507   1.370194   1.661855   1.600326   1.437434

      Natural orbitals and occupation numbers for root  9
      sym 1:   1.059768   1.105709   1.259290   1.861073   1.735082   1.656803   1.322274

      Natural orbitals and occupation numbers for root 10
      sym 1:   1.353295   1.707973   1.103776   1.270063   1.711650   1.204889   1.648354

      Natural orbitals and occupation numbers for root 11
      sym 1:   1.065870   1.119671   1.361252   1.543113   1.861868   1.418861   1.629366

      Natural orbitals and occupation numbers for root 12
      sym 1:   1.010460   1.018955   1.355332   1.344142   1.650596   1.980204   1.640311

      Natural orbitals and occupation numbers for root 13
      sym 1:   1.000781   1.266255   1.081628   1.245833   1.733222   1.754404   1.917878

      Natural orbitals and occupation numbers for root 14
      sym 1:   1.509281   1.490719   1.496472   1.502600   1.000003   1.503526   1.497398

      Natural orbitals and occupation numbers for root 15
      sym 1:   1.481400   1.000046   1.502474   1.518564   1.508174   1.491809   1.497532

      Natural orbitals and occupation numbers for root 16
      sym 1:   1.481742   1.518256   1.499247   1.502571   1.497427   1.000005   1.500751

      Natural orbitals and occupation numbers for root 17
      sym 1:   1.416721   1.428116   1.422324   1.432205   1.435152   1.434852   1.430630

      Natural orbitals and occupation numbers for root 18
      sym 1:   1.000258   1.494886   1.505110   1.502655   1.497308   1.509467   1.490315

      Natural orbitals and occupation numbers for root 19
      sym 1:   1.493928   1.000026   1.492183   1.507795   1.506069   1.496073   1.503928

      Natural orbitals and occupation numbers for root 20
      sym 1:   1.000054   1.489250   1.510726   1.511146   1.488846   1.504120   1.495859

      Natural orbitals and occupation numbers for root 21
      sym 1:   1.490599   1.000081   1.509364   1.492942   1.497651   1.507026   1.502337

      Natural orbitals and occupation numbers for root 22
      sym 1:   1.758946   1.777824   1.417450   1.582239   1.240577   1.221909   1.001056

      Natural orbitals and occupation numbers for root 23
      sym 1:   1.676488   1.635477   1.396128   1.824292   1.137289   1.046963   1.283364

      Natural orbitals and occupation numbers for root 24
      sym 1:   1.861238   1.125410   1.599175   1.424578   1.379590   1.552296   1.057713

      Natural orbitals and occupation numbers for root 25
      sym 1:   1.537258   1.103612   1.433275   1.863722   1.158760   1.382530   1.520843

      Natural orbitals and occupation numbers for root 26
      sym 1:   1.069326   1.703410   1.617275   1.157744   1.394241   1.263572   1.794433

      Natural orbitals and occupation numbers for root 27
      sym 1:   1.307289   1.183717   1.129247   1.564673   1.596694   1.857122   1.361259

      Natural orbitals and occupation numbers for root 28
      sym 1:   1.298432   1.732417   1.553451   1.180264   1.448074   1.263334   1.524027

      Natural orbitals and occupation numbers for root 29
      sym 1:   1.133323   1.048760   1.353782   1.401583   1.857923   1.598017   1.606611

      Natural orbitals and occupation numbers for root 30
      sym 1:   1.392317   1.599324   1.164215   1.084114   1.554268   1.342453   1.863309

      Natural orbitals and occupation numbers for root 31
      sym 1:   1.144217   1.775178   1.188329   1.614189   1.242385   1.821175   1.214526

      Natural orbitals and occupation numbers for root 32
      sym 1:   1.143795   1.806627   1.195699   1.615640   1.792198   1.240617   1.205423

      Natural orbitals and occupation numbers for root 33
      sym 1:   1.145920   1.258017   1.895198   1.626252   1.141597   1.673696   1.259319

      Natural orbitals and occupation numbers for root 34
      sym 1:   1.798864   1.141971   1.199767   1.237311   1.620721   1.196362   1.805004

      Natural orbitals and occupation numbers for root 35
      sym 1:   1.835221   1.620909   1.239296   1.141710   1.216775   1.179818   1.766270

      ************************************************************************************************************************
      *                                                                                                                      *
      *                                                    Final results                                                     *
      *                                                                                                                      *
      ************************************************************************************************************************


++    Wave function specifications:
      -----------------------------

      Number of closed shell electrons         214
      Number of electrons in active shells      10
      Max number of holes in RAS1 space          0
      Max nr of electrons in RAS3 space          0
      Number of inactive orbitals              107
      Number of active orbitals                  7
      Number of secondary orbitals             590
      Spin quantum number                      2.0
      State symmetry                             1
--

++    Orbital specifications:
      -----------------------

      Symmetry species                           1
                                                 a
      Frozen orbitals                            0
      Inactive orbitals                        107
      Active orbitals                            7
      RAS1 orbitals                              0
      RAS2 orbitals                              7
      RAS3 orbitals                              0
      Secondary orbitals                       590
      Deleted orbitals                           0
      Number of basis functions                704
--

++    CI expansion specifications:
      ----------------------------

      Number of CSFs                            35
      Number of determinants                    35
      Number of root(s) required                35
      CI roots used                              1     2     3     4     5     6     7     8     9    10
                                                11    12    13    14    15    16    17    18    19    20
                                                21    22    23    24    25    26    27    28    29    30
                                                31    32    33    34    35
      weights                                0.029 0.029 0.029 0.029 0.029 0.029 0.029 0.029 0.029 0.029
                                             0.029 0.029 0.029 0.029 0.029 0.029 0.029 0.029 0.029 0.029
                                             0.029 0.029 0.029 0.029 0.029 0.029 0.029 0.029 0.029 0.029
                                             0.029 0.029 0.029 0.029 0.029
      highest root included in the CI           35
      Root passed to geometry opt.              35
--

++    Final optimization conditions:
      ------------------------------

      Average CI energy                          -14001.30564420
      RASSCF energy for state 35                 -14001.17787233
      Super-CI energy                                -0.00000000
      RASSCF energy change                           -0.00000000
      Max change in MO coefficients               0.291E-05
      Max non-diagonal density matrix element    -0.313E-05
      Maximum BLB matrix element                 -0.162E-05
      (orbital pair 114, 700 in symmetry   1)
      Norm of electronic gradient            0.314E+00
--


      Final state energy(ies):
      ------------------------

[...]
   9     -0.577350269190    -0.577350269190     0.577350269190     0.006101255491
  10      0.706896546391     0.706896546391     0.024383301669     0.003242209201
  11     -0.706896546391     0.706896546391     0.024383301669     0.003242209201
  12      0.706896546391    -0.706896546391     0.024383301669     0.003242209201
  13     -0.706896546391    -0.706896546391     0.024383301669     0.003242209201
  14      0.706896546391     0.024383301669     0.706896546391     0.003242209201
  15     -0.706896546391     0.024383301669     0.706896546391     0.003242209201
  16      0.706896546391    -0.024383301669     0.706896546391     0.003242209201
  17     -0.706896546391    -0.024383301669     0.706896546391     0.003242209201
  18      0.024383301669     0.706896546391     0.706896546391     0.003242209201
  19     -0.024383301669     0.706896546391     0.706896546391     0.003242209201
  20      0.024383301669    -0.706896546391     0.706896546391     0.003242209201
  21     -0.024383301669    -0.706896546391     0.706896546391     0.003242209201
  22      0.479468262571     0.479468262571     0.734996850588     0.006011402970
  23     -0.479468262571     0.479468262571     0.734996850588     0.006011402970
  24      0.479468262571    -0.479468262571     0.734996850588     0.006011402970
  25     -0.479468262571    -0.479468262571     0.734996850588     0.006011402970
  26      0.479468262571     0.734996850588     0.479468262571     0.006011402970
  27     -0.479468262571     0.734996850588     0.479468262571     0.006011402970
  28      0.479468262571    -0.734996850588     0.479468262571     0.006011402970
  29     -0.479468262571    -0.734996850588     0.479468262571     0.006011402970
  30      0.734996850588     0.479468262571     0.479468262571     0.006011402970
  31     -0.734996850588     0.479468262571     0.479468262571     0.006011402970
  32      0.734996850588    -0.479468262571     0.479468262571     0.006011402970
  33     -0.734996850588    -0.479468262571     0.479468262571     0.006011402970
  34      0.192753315488     0.192753315488     0.962129055136     0.005981985059
  35     -0.192753315488     0.192753315488     0.962129055136     0.005981985059
  36      0.192753315488    -0.192753315488     0.962129055136     0.005981985059
  37     -0.192753315488    -0.192753315488     0.962129055136     0.005981985059
  38      0.192753315488     0.962129055136     0.192753315488     0.005981985059
  39     -0.192753315488     0.962129055136     0.192753315488     0.005981985059
  40      0.192753315488    -0.962129055136     0.192753315488     0.005981985059
  41     -0.192753315488    -0.962129055136     0.192753315488     0.005981985059
  42      0.962129055136     0.192753315488     0.192753315488     0.005981985059
  43     -0.962129055136     0.192753315488     0.192753315488     0.005981985059
  44      0.962129055136    -0.192753315488     0.192753315488     0.005981985059
  45     -0.962129055136    -0.192753315488     0.192753315488     0.005981985059
  46      0.693035796133     0.693035796133     0.198501311223     0.005964341288
  47     -0.693035796133     0.693035796133     0.198501311223     0.005964341288
  48      0.693035796133    -0.693035796133     0.198501311223     0.005964341288
  49     -0.693035796133    -0.693035796133     0.198501311223     0.005964341288
  50      0.693035796133     0.198501311223     0.693035796133     0.005964341288
  51     -0.693035796133     0.198501311223     0.693035796133     0.005964341288
  52      0.693035796133    -0.198501311223     0.693035796133     0.005964341288
  53     -0.693035796133    -0.198501311223     0.693035796133     0.005964341288
  54      0.198501311223     0.693035796133     0.693035796133     0.005964341288
  55     -0.198501311223     0.693035796133     0.693035796133     0.005964341288
  56      0.198501311223    -0.693035796133     0.693035796133     0.005964341288
  57     -0.198501311223    -0.693035796133     0.693035796133     0.005964341288
  58      0.360830211552     0.360830211552     0.860001812128     0.005443128475
  59     -0.360830211552     0.360830211552     0.860001812128     0.005443128475
  60      0.360830211552    -0.360830211552     0.860001812128     0.005443128475
  61     -0.360830211552    -0.360830211552     0.860001812128     0.005443128475
  62      0.360830211552     0.860001812128     0.360830211552     0.005443128475
  63     -0.360830211552     0.860001812128     0.360830211552     0.005443128475
  64      0.360830211552    -0.860001812128     0.360830211552     0.005443128475
  65     -0.360830211552    -0.860001812128     0.360830211552     0.005443128475
  66      0.860001812128     0.360830211552     0.360830211552     0.005443128475
  67     -0.860001812128     0.360830211552     0.360830211552     0.005443128475
  68      0.860001812128    -0.360830211552     0.360830211552     0.005443128475
  69     -0.860001812128    -0.360830211552     0.360830211552     0.005443128475
  70      0.649848616150     0.649848616150     0.394199888606     0.006067027592
  71     -0.649848616150     0.649848616150     0.394199888606     0.006067027592
  72      0.649848616150    -0.649848616150     0.394199888606     0.006067027592
  73     -0.649848616150    -0.649848616150     0.394199888606     0.006067027592
  74      0.649848616150     0.394199888606     0.649848616150     0.006067027592
  75     -0.649848616150     0.394199888606     0.649848616150     0.006067027592
  76      0.649848616150    -0.394199888606     0.649848616150     0.006067027592
  77     -0.649848616150    -0.394199888606     0.649848616150     0.006067027592
  78      0.394199888606     0.649848616150     0.649848616150     0.006067027592
  79     -0.394199888606     0.649848616150     0.649848616150     0.006067027592
  80      0.394199888606    -0.649848616150     0.649848616150     0.006067027592
  81     -0.394199888606    -0.649848616150     0.649848616150     0.006067027592
  82      0.193294501323     0.981140782843     0.000000000000     0.003007949555
  83     -0.193294501323     0.981140782843     0.000000000000     0.003007949555
  84      0.193294501323    -0.981140782843     0.000000000000     0.003007949555
  85     -0.193294501323    -0.981140782843     0.000000000000     0.003007949555
  86      0.981140782843     0.193294501323     0.000000000000     0.003007949555
  87     -0.981140782843     0.193294501323     0.000000000000     0.003007949555
  88      0.981140782843    -0.193294501323     0.000000000000     0.003007949555
  89     -0.981140782843    -0.193294501323     0.000000000000     0.003007949555
  90      0.193294501323     0.000000000000     0.981140782843     0.006015899110
  91     -0.193294501323     0.000000000000     0.981140782843     0.006015899110
  92      0.981140782843     0.000000000000     0.193294501323     0.006015899110
  93     -0.981140782843     0.000000000000     0.193294501323     0.006015899110
  94      0.000000000000     0.193294501323     0.981140782843     0.006015899110
  95      0.000000000000    -0.193294501323     0.981140782843     0.006015899110
  96      0.000000000000     0.981140782843     0.193294501323     0.006015899110
  97      0.000000000000    -0.981140782843     0.193294501323     0.006015899110
  98      0.380049491990     0.924966152699     0.000000000000     0.002881964603
  99     -0.380049491990     0.924966152699     0.000000000000     0.002881964603
 100      0.380049491990    -0.924966152699     0.000000000000     0.002881964603
 101     -0.380049491990    -0.924966152699     0.000000000000     0.002881964603
 102      0.924966152699     0.380049491990     0.000000000000     0.002881964603
 103     -0.924966152699     0.380049491990     0.000000000000     0.002881964603
 104      0.924966152699    -0.380049491990     0.000000000000     0.002881964603
 105     -0.924966152699    -0.380049491990     0.000000000000     0.002881964603
 106      0.380049491990     0.000000000000     0.924966152699     0.005763929206
 107     -0.380049491990     0.000000000000     0.924966152699     0.005763929206
 108      0.924966152699     0.000000000000     0.380049491990     0.005763929206
 109     -0.924966152699     0.000000000000     0.380049491990     0.005763929206
 110      0.000000000000     0.380049491990     0.924966152699     0.005763929206
 111      0.000000000000    -0.380049491990     0.924966152699     0.005763929206
 112      0.000000000000     0.924966152699     0.380049491990     0.005763929206
 113      0.000000000000    -0.924966152699     0.380049491990     0.005763929206
 114      0.289955882550     0.793453785658     0.535123047718     0.005916715253
 115     -0.289955882550     0.793453785658     0.535123047718     0.005916715253
 116      0.289955882550    -0.793453785658     0.535123047718     0.005916715253
 117     -0.289955882550    -0.793453785658     0.535123047718     0.005916715253
 118      0.289955882550     0.535123047718     0.793453785658     0.005916715253
 119     -0.289955882550     0.535123047718     0.793453785658     0.005916715253
 120      0.289955882550    -0.535123047718     0.793453785658     0.005916715253
 121     -0.289955882550    -0.535123047718     0.793453785658     0.005916715253
 122      0.793453785658     0.289955882550     0.535123047718     0.005916715253
 123     -0.793453785658     0.289955882550     0.535123047718     0.005916715253
 124      0.793453785658    -0.289955882550     0.535123047718     0.005916715253
 125     -0.793453785658    -0.289955882550     0.535123047718     0.005916715253
 126      0.793453785658     0.535123047718     0.289955882550     0.005916715253
 127     -0.793453785658     0.535123047718     0.289955882550     0.005916715253
 128      0.793453785658    -0.535123047718     0.289955882550     0.005916715253
 129     -0.793453785658    -0.535123047718     0.289955882550     0.005916715253
 130      0.535123047718     0.289955882550     0.793453785658     0.005916715253
 131     -0.535123047718     0.289955882550     0.793453785658     0.005916715253
 132      0.535123047718    -0.289955882550     0.793453785658     0.005916715253
 133     -0.535123047718    -0.289955882550     0.793453785658     0.005916715253
 134      0.535123047718     0.793453785658     0.289955882550     0.005916715253
 135     -0.535123047718     0.793453785658     0.289955882550     0.005916715253
 136      0.535123047718    -0.793453785658     0.289955882550     0.005916715253
 137     -0.535123047718    -0.793453785658     0.289955882550     0.005916715253
 138      0.096841214551     0.828080150669     0.552182074349     0.006072040053
 139     -0.096841214551     0.828080150669     0.552182074349     0.006072040053
 140      0.096841214551    -0.828080150669     0.552182074349     0.006072040053
 141     -0.096841214551    -0.828080150669     0.552182074349     0.006072040053
 142      0.096841214551     0.552182074349     0.828080150669     0.006072040053
 143     -0.096841214551     0.552182074349     0.828080150669     0.006072040053
 144      0.096841214551    -0.552182074349     0.828080150669     0.006072040053
 145     -0.096841214551    -0.552182074349     0.828080150669     0.006072040053
 146      0.828080150669     0.096841214551     0.552182074349     0.006072040053
 147     -0.828080150669     0.096841214551     0.552182074349     0.006072040053
 148      0.828080150669    -0.096841214551     0.552182074349     0.006072040053
 149     -0.828080150669    -0.096841214551     0.552182074349     0.006072040053
 150      0.828080150669     0.552182074349     0.096841214551     0.006072040053
 151     -0.828080150669     0.552182074349     0.096841214551     0.006072040053
 152      0.828080150669    -0.552182074349     0.096841214551     0.006072040053
 153     -0.828080150669    -0.552182074349     0.096841214551     0.006072040053
 154      0.552182074349     0.096841214551     0.828080150669     0.006072040053
 155     -0.552182074349     0.096841214551     0.828080150669     0.006072040053
 156      0.552182074349    -0.096841214551     0.828080150669     0.006072040053
 157     -0.552182074349    -0.096841214551     0.828080150669     0.006072040053
 158      0.552182074349     0.828080150669     0.096841214551     0.006072040053
 159     -0.552182074349     0.828080150669     0.096841214551     0.006072040053
 160      0.552182074349    -0.828080150669     0.096841214551     0.006072040053
 161     -0.552182074349    -0.828080150669     0.096841214551     0.006072040053
 162      0.183343464704     0.907465826531     0.378009189874     0.005664374808
 163     -0.183343464704     0.907465826531     0.378009189874     0.005664374808
 164      0.183343464704    -0.907465826531     0.378009189874     0.005664374808
 165     -0.183343464704    -0.907465826531     0.378009189874     0.005664374808
 166      0.183343464704     0.378009189874     0.907465826531     0.005664374808
 167     -0.183343464704     0.378009189874     0.907465826531     0.005664374808
 168      0.183343464704    -0.378009189874     0.907465826531     0.005664374808
 169     -0.183343464704    -0.378009189874     0.907465826531     0.005664374808
 170      0.907465826531     0.183343464704     0.378009189874     0.005664374808
 171     -0.907465826531     0.183343464704     0.378009189874     0.005664374808
 172      0.907465826531    -0.183343464704     0.378009189874     0.005664374808
 173     -0.907465826531    -0.183343464704     0.378009189874     0.005664374808
 174      0.907465826531     0.378009189874     0.183343464704     0.005664374808
 175     -0.907465826531     0.378009189874     0.183343464704     0.005664374808
 176      0.907465826531    -0.378009189874     0.183343464704     0.005664374808
 177     -0.907465826531    -0.378009189874     0.183343464704     0.005664374808
 178      0.378009189874     0.183343464704     0.907465826531     0.005664374808
 179     -0.378009189874     0.183343464704     0.907465826531     0.005664374808
 180      0.378009189874    -0.183343464704     0.907465826531     0.005664374808
 181     -0.378009189874    -0.183343464704     0.907465826531     0.005664374808
 182      0.378009189874     0.907465826531     0.183343464704     0.005664374808
 183     -0.378009189874     0.907465826531     0.183343464704     0.005664374808
 184      0.378009189874    -0.907465826531     0.183343464704     0.005664374808
 185     -0.378009189874    -0.907465826531     0.183343464704     0.005664374808
  --------------------------------------------------------------------------------
  The cut-off energy for the exact diagonalization of the Zeeman Hamiltonian is:
  E =  1161.899974000 cm(-1).
  The exact diagonalization of the Zeeman Hamiltonian included  17 exchange states.
  The magnetization vector was not calculated.
  Computation of the Zeeman splitting was not requested.

                         HIGH-FIELD POWDER MAGNETIZATION
                              (Units: Bohr magneton)

-----------|---------------|---------------|---------------|---------------|
   H(T)    |STATISTICAL SUM|     2.000 K.  |     3.000 K.  |     5.000 K.  |
-----------|---------------|---------------|---------------|---------------|
  0.000100 |     1.0000030 |  0.0001377237 |  0.0001376854 |  0.0001365055 |
  0.100000 |     1.0000030 |  0.1376777373 |  0.1376395890 |  0.1364623807 |
  0.200000 |     1.0000030 |  0.2750804918 |  0.2750050263 |  0.2726668174 |
  0.300000 |     1.0000030 |  0.4119367949 |  0.4118256352 |  0.4083583294 |
  0.400000 |     1.0000030 |  0.5479820921 |  0.5478375778 |  0.5432877793 |
  0.500000 |     1.0000030 |  0.6829619186 |  0.6827870009 |  0.6772145906 |
  0.600000 |     1.0000030 |  0.8166347589 |  0.8164328725 |  0.8099092315 |
  0.700000 |     1.0000030 |  0.9487745123 |  0.9485494346 |  0.9411554064 |
  0.800000 |     1.0000029 |  1.0791725120 |  1.0789282184 |  1.0707519087 |
  0.900000 |     1.0000029 |  1.2076390670 |  1.2073795908 |  1.1985141066 |
  1.000000 |     1.0000029 |  1.3340045191 |  1.3337338242 |  1.3242750454 |
  1.100000 |     1.0000029 |  1.4581198299 |  1.4578417009 |  1.4478861686 |
  1.200000 |     1.0000029 |  1.5798567270 |  1.5795746808 |  1.5692176705 |
  1.300000 |     1.0000028 |  1.6991074555 |  1.6988246765 |  1.6881585066 |
  1.400000 |     1.0000028 |  1.8157841886 |  1.8155034858 |  1.8046160961 |
  1.500000 |     1.0000028 |  1.9298181556 |  1.9295419419 |  1.9185157555 |
  1.600000 |     1.0000027 |  2.0411585485 |  2.0408888374 |  2.0297999090 |
  1.700000 |     1.0000027 |  2.1497712645 |  2.1495096827 |  2.1384271191 |
  1.800000 |     1.0000027 |  2.2556375404 |  2.2553853517 |  2.2443709839 |
  1.900000 |     1.0000026 |  2.3587525259 |  2.3585106629 |  2.3476189398 |
  2.000000 |     1.0000026 |  2.4591238379 |  2.4588929394 |  2.4481710107 |
  2.100000 |     1.0000026 |  2.5567701314 |  2.5565505815 |  2.5460385357 |
  2.200000 |     1.0000025 |  2.6517197136 |  2.6515116808 |  2.6412429034 |
  2.300000 |     1.0000025 |  2.7440092223 |  2.7438126978 |  2.7338143185 |
  2.400000 |     1.0000024 |  2.8336823851 |  2.8334972171 |  2.8237906172 |
  2.500000 |     1.0000024 |  2.9207888673 |  2.9206147931 |  2.9112161466 |
  2.600000 |     1.0000023 |  3.0053832159 |  3.0052198893 |  2.9961407182 |
  2.700000 |     1.0000023 |  3.0875239015 |  3.0873709163 |  3.0786186411 |
  2.800000 |     1.0000023 |  3.1672724559 |  3.1671293663 |  3.1587078397 |
  2.900000 |     1.0000022 |  3.2446927051 |  3.2445590416 |  3.2364690541 |
  3.000000 |     1.0000022 |  3.3198500909 |  3.3197253737 |  3.3119651251 |
  3.100000 |     1.0000021 |  3.3928110777 |  3.3926948265 |  3.3852603587 |
  3.200000 |     1.0000021 |  3.4636426361 |  3.4635343786 |  3.4564199665 |
  3.300000 |     1.0000020 |  3.5324118000 |  3.5323110772 |  3.5255095785 |
  3.400000 |     1.0000020 |  3.5991852871 |  3.5990916578 |  3.5925948216 |
  3.500000 |     1.0000019 |  3.6640291797 |  3.6639422230 |  3.6577409593 |
  3.600000 |     1.0000019 |  3.7270086569 |  3.7269279739 |  3.7210125860 |
  3.700000 |     1.0000018 |  3.7881877741 |  3.7881129890 |  3.7824733722 |
  3.800000 |     1.0000018 |  3.8476292841 |  3.8475600440 |  3.8421858534 |
  3.900000 |     1.0000017 |  3.9053944935 |  3.9053304686 |  3.9002112585 |
  4.000000 |     1.0000017 |  3.9615431516 |  3.9614840343 |  3.9566093736 |
  4.100000 |     1.0000016 |  4.0161333661 |  4.0160788703 |  4.0114384359 |
  4.200000 |     1.0000016 |  4.0692215428 |  4.0691714030 |  4.0647550543 |
  4.300000 |     1.0000015 |  4.1208623456 |  4.1208163155 |  4.1166141528 |
  4.400000 |     1.0000015 |  4.1711086731 |  4.1710665249 |  4.1670689339 |
  4.500000 |     1.0000014 |  4.2200116510 |  4.2199731741 |  4.2161708585 |
  4.600000 |     1.0000014 |  4.2676206354 |  4.2675856355 |  4.2639696398 |
  4.700000 |     1.0000013 |  4.3139832279 |  4.3139515255 |  4.3105132499 |
  4.800000 |     1.0000013 |  4.3591452976 |  4.3591167275 |  4.3558479358 |
  4.900000 |     1.0000012 |  4.4031510107 |  4.4031254209 |  4.4000182431 |
  5.000000 |     1.0000012 |  4.4460428661 |  4.4460201169 |  4.4430670474 |
-----------|---------------|---------------|---------------|---------------|
--- Stop Module: single_aniso at Tue Jan 28 04:37:32 2025 /rc=_RC_ALL_IS_WELL_ ---
*** files: xmldump
    saved to directory /media/korden/5fb66ce1-8053-4a4f-9303-c4fa91c2cea8/home/korden/calc/orca/Artem/PyH2HoNO34
--- Module single_aniso spent 37 seconds ---

>>> COPY PyH2HoNO34.aniso /media/korden/5fb66ce1-8053-4a4f-9303-c4fa91c2cea8/home/korden/calc/orca/Artem/PyH2HoNO34/HoNO34.aniso

    Timing: Wall=21576.91 User=21328.11 System=237.64