   This run of MOLCAS is using the pymolcas driver

                             OPE
                             OPE          NMOL  CASOP  ENMOLC A   SO
                 OPE        NMOLC        AS  OP EN  MO LC     AS  OP
                OPENM       OL CA        SO  PE NM  OL CA     SOP EN
                OP EN      MO   LC       AS  OP ENMOL  CASO   PENMOL
                OP  EN     MO   LC       AS  OP EN     MO     LC ASO
               OP   E  NMOL  C  AS       OP  EN MO     LC     AS  OP
               OP  E   NMO   LC AS        OPEN  MO     LCASOP EN   M
               O  PEN   MO  LCA  SO
            OPE   NMO   L   CAS    OP
        OPENMOL  CASOP     ENMOL   CASOPE
     OPENMOLCA   SOPENMOLCASOPEN   MOLCASOPE
    OPENMOLCAS   OP           EN   MOL    CAS
    OPENMOLCAS       OP  ENM        O     LCA
    OPENMOLCAS    OPEN  MOLCASO     P  E  NMO
    OPENMOLCAS     OP               E  N  MOL
    OPENMOLCA   SO           PENM   O  L  CAS    OPEN    MO    LCAS
    OPENMOLCA   SOP           ENM   O  L  CAS   OP  EN  MOLC  AS   O
    OPENMOLCA   SOPE           NM      O  LCA   S      OP  EN MO
    OPENMOLC                AS         O  PEN   M      OL  CA  SOPE
    OPENMO        LCASOPE  NMOL        C  ASO   P      ENMOLC     AS
    OPE     NMO      LCA  SO     P     E   NM   OL  CA SO  PE N   MO
          OPENMOLCA            SOPE   NMO        LCAS  O    P  ENMO
     OPENMOLCASOPENMOLCASOPENMOLCASOPENMOLCA
        OPENMOLCASOPENMOLCASOPENMOLCASOPE
            OPENMOLCASOPENMOLCASOPENM
               OPENMOLCASOPENMOLCA        version: v19.11 ?
                   OPENMOLCASO
                       OPE                tag:

 OpenMolcas is free software; you can redistribute it and/or modify it
 under the terms of the GNU Lesser General Public License version 2.1.
 OpenMolcas is distributed in the hope that it will be useful, but it
 is provided "as is" and without any express or implied warranties.
 For more details see the full text of the license in the file
 LICENSE or in <http://www.gnu.org/licenses/>.

                 Copyright (C) The OpenMolcas Authors
           For the author list and the recommended citation,
                   consult the file CONTRIBUTORS.md

           *************************************************
           * pymolcas version py2.06                       *
           *   build 99e611e35fc7aec87fd6f34cfa558dd4      *
           *   (after the EMIL interpreter by V. Veryazov) *
           *************************************************


   ----------------------------------------------------------------------------------------------------------------
  |
  |              Project: py2dynh34_sa
  |       Submitted from: /media/korden/5fb66ce1-8053-4a4f-9303-c4fa91c2cea8/home/korden/calc/orca/Artem/PyH2DyNO34
  |         Scratch area: /tmp/py2dynh34_sa
  |      Save outputs to: /media/korden/5fb66ce1-8053-4a4f-9303-c4fa91c2cea8/home/korden/calc/orca/Artem/PyH2DyNO34
  |               Molcas: /usr/share/openmolcas
  |
  | Scratch area is empty
  |
  |        MOLCAS_COLOR = YES
  |       MOLCAS_DRIVER = /usr/bin/pymolcas
  | MOLCAS_KEEP_WORKDIR = YES
  |      MOLCAS_MAXITER = 100
  |       MOLCAS_MOLDEN = YES
  |  MOLCAS_NEW_WORKDIR = NO
  |       MOLCAS_NPROCS = 1
  |        MOLCAS_PRINT = NORMAL
  |         MOLCAS_SAVE = ORIG
  |       MOLCAS_SOURCE = /home/korden/build
  |    MOLCAS_STRUCTURE = 0
  |         MOLCAS_TRAP = YES
  |
   ----------------------------------------------------------------------------------------------------------------

++ ---------   Input file   ---------

&GATEWAY
Douglas-Kroll

AMFI
ANGM
 -2.178166 5.450388 8.425607  Angstrom

Basis Set
Dy.ANO-RCC-VTZP.
 Dy1    -2.178166 5.450388 8.425607    Angstrom
End of Basis Set

Basis Set
O.ANO-RCC-VTZP.
 O1    -2.317762 6.379614 10.697929    Angstrom
 O2    -4.442351 6.080522 8.996961    Angstrom
 O3    -4.269917 4.533985 7.503675    Angstrom
 O4    -0.235101 5.665882 6.999141    Angstrom
 O5    -1.259634 3.208746 8.652703    Angstrom
 O6    -1.635026 7.831438 8.359238    Angstrom
 O7    -2.098786 1.659296 9.920247    Angstrom
 O8    -1.857307 4.514786 6.169538    Angstrom
 O9    -0.400323 5.657739 10.047791    Angstrom
 O10    -2.951869 7.100912 6.829834    Angstrom
 O11    -0.081028 4.874018 4.968589    Angstrom
 O12    -6.238046 5.219275 8.106407    Angstrom
 O13    -2.965069 3.657875 9.882999    Angstrom
 O14    -2.442117 9.214004 6.902072    Angstrom
 O15    -0.581303 6.629384 11.979017    Angstrom
End of Basis Set

Basis Set
N.ANO-RCC-VTZP.
 N1    -5.031910 5.272486 8.197833    Angstrom
 N2    -2.347228 8.078698 7.345655    Angstrom
 N3    -1.098002 6.243181 10.950760    Angstrom
 N4    -2.116391 2.801936 9.515039    Angstrom
 N5    -0.715149 5.009436 6.010389    Angstrom
End of Basis Set

&SEWARD
HIGH Cholesky

&RASSCF
SYMM
1
CIMX
200
charge
-2
Spin
6
ciroot
21 21 1
Nactel
9 0 0
Ras2
7
ORBL
nocore
ORBA
compact

>>> COPY $Project.JobIph JOB001

&RASSI
spinorbit
nrofjobiphs=1 21
1 2 3 4 5 6 7 8 9 10 11 12 13 14 15 16 17 18 19 20 21
mees
PROP
3
'ANGMOM' 1
'ANGMOM' 2
'ANGMOM' 3

&SINGLE_ANISO
MLTP
8
2 2 2 2  2 2 2 2
CRYS
Dy
XFIE
0.1
TINT
0 300 301
HINT
0 5 51
TMAG
3 2.0 3.0 5.0
UBAR
PLOT

>>> COPY $Project.aniso $CurrDir/(PyH)2Dy(NO3)4.aniso

-- ----------------------------------

--- Start Module: gateway at Wed Jan 29 01:13:50 2025 ---

()()()()()()()()()()()()()()()()()()()()()()()()()()()()()()()()()()()()()()()()()()()()()()()()()()

                                              &GATEWAY

                                   only a single process is used
                       available to each process: 32 GB of memory, 1 thread?
                                             pid: 41525
()()()()()()()()()()()()()()()()()()()()()()()()()()()()()()()()()()()()()()()()()()()()()()()()()()


++    Symmetry information:
      ---------------------

                    Character Table for C1 

                             E  
                    a        1  x, y, xy, Rz, z, xz, Ry, yz, Rx, I
--


++    Basis set information:
      ----------------------


      Basis set label: DY.ANO-RCC...8S7P5D3F2G1H.

      Electronic valence basis set:
      ------------------
      Associated Effective Charge  66.000000 au
      Associated Actual Charge     66.000000 au
      Nuclear Model: Point charge

      Shell  nPrim  nBasis  Cartesian Spherical Contaminant
         s      25       8        X                  
         p      22       7        X                  
         d      15       5                 X         
         f      11       3                 X         
         g       4       2                 X         
         h       2       1                 X         


      Basis set label: O.ANO-RCC...4S3P2D1F.

      Electronic valence basis set:
      ------------------
      Associated Effective Charge   8.000000 au
      Associated Actual Charge      8.000000 au
      Nuclear Model: Point charge

      Shell  nPrim  nBasis  Cartesian Spherical Contaminant
         s      14       4        X                  
         p       9       3        X                  
         d       4       2                 X         
         f       3       1                 X         


      Basis set label: N.ANO-RCC...4S3P2D1F.

      Electronic valence basis set:
      ------------------
      Associated Effective Charge   7.000000 au
      Associated Actual Charge      7.000000 au
      Nuclear Model: Point charge

      Shell  nPrim  nBasis  Cartesian Spherical Contaminant
         s      14       4        X                  
         p       9       3        X                  
         d       4       2                 X         
         f       3       1                 X         
--


++    Molecular structure info:
      -------------------------

                    ************************************************ 
                    **** Cartesian Coordinates / Bohr, Angstrom **** 
                    ************************************************ 

     Center  Label                x              y              z                     x              y              z
        1      DY1             -4.116137      10.299741      15.922090             -2.178166       5.450388       8.425607
        2      O1              -4.379935      12.055723      20.216156             -2.317762       6.379614      10.697929
        3      O2              -8.394827      11.490521      17.001792             -4.442351       6.080522       8.996961
        4      O3              -8.068974       8.567990      14.179891             -4.269917       4.533985       7.503675
        5      O4              -0.444277      10.706965      13.226460             -0.235101       5.665882       6.999141
        6      O5              -2.380363       6.063651      16.351239             -1.259634       3.208746       8.652703
        7      O6              -3.089751      14.799273      15.796670             -1.635026       7.831438       8.359238
        8      O7              -3.966131       3.135615      18.746550             -2.098786       1.659296       9.920247
        9      O8              -3.509802       8.531709      11.658737             -1.857307       4.514786       6.169538
       10      O9              -0.756501      10.691577      18.987573             -0.400323       5.657739      10.047791
       11      O10             -5.578224      13.418779      12.906516             -2.951869       7.100912       6.829834
       12      O11             -0.153121       9.210559       9.389272             -0.081028       4.874018       4.968589
       13      O12            -11.788198       9.863000      15.318889             -6.238046       5.219275       8.106407
       14      O13             -5.603168       6.912382      18.676161             -2.965069       3.657875       9.882999
       15      O14             -4.614932      17.411944      13.043026             -2.442117       9.214004       6.902072
       16      O15             -1.098503      12.527720      22.637061             -0.581303       6.629384      11.979017
       17      N1              -9.508932       9.963555      15.491659             -5.031910       5.272486       8.197833
       18      N2              -4.435618      15.266527      13.881276             -2.347228       8.078698       7.345655
       19      N3              -2.074923      11.797902      20.693937             -1.098002       6.243181      10.950760
       20      N4              -3.999399       5.294892      17.980818             -2.116391       2.801936       9.515039
       21      N5              -1.351436       9.466462      11.357989             -0.715149       5.009436       6.010389

                    ************************************************* 
                    **** InterNuclear Distances / Bohr, Angstrom **** 
                    ************************************************* 

     Atom centers         Bohr        Angstrom
   17 N1       13 O12     2.288016        1.210766
   20 N4        8 O7      2.291272        1.212489
   19 N3       16 O15     2.293853        1.213855
   18 N2       15 O14     2.310332        1.222575
   21 N5       12 O11     2.318899        1.227108
   19 N3        2 O1      2.368085        1.253137
   21 N5        9 O8      2.371235        1.254804
   18 N2       11 O10     2.381151        1.260051
   20 N4       14 O13     2.381565        1.260270
   18 N2        7 O6      2.387136        1.263218
   17 N1        4 O3      2.396209        1.268019
   21 N5        5 O4      2.419291        1.280234
   17 N1        3 O2      2.419372        1.280276
   20 N4        6 O5      2.422353        1.281854
   19 N3       10 O9      2.423607        1.282518
   11 O10       7 O6      4.056015        2.146350
   10 O9        2 O1      4.061969        2.149501
   14 O13       6 O5      4.063506        2.150315
    9 O8        5 O4      4.072706        2.155183
    4 O3        3 O2      4.075598        2.156714
   15 O14       7 O6      4.090817        2.164767
   13 O12       4 O3      4.099634        2.169433
   16 O15      10 O9      4.099653        2.169443
    8 O7        6 O5      4.101898        2.170631
   16 O15       2 O1      4.105041        2.172294
   12 O11       9 O8      4.108359        2.174050
   15 O14      11 O10     4.109980        2.174908
   14 O13       8 O7      4.116894        2.178566
   13 O12       3 O2      4.122616        2.181594
   12 O11       5 O4      4.128923        2.184932
   10 O9        1 DY1     4.564853        2.415616
    3 O2        1 DY1     4.570656        2.418687
    5 O4        1 DY1     4.573272        2.420071
   11 O10       1 DY1     4.578186        2.422672
    6 O5        1 DY1     4.597992        2.433153
   14 O13       1 DY1     4.611981        2.440555
    7 O6        1 DY1     4.616816        2.443114
    2 O1        1 DY1     4.646727        2.458942
    4 O3        1 DY1     4.653937        2.462758
    9 O8        1 DY1     4.655078        2.463361
    3 O2        2 O1      5.174064        2.737997
    9 O8        4 O3      5.209950        2.756987
   11 O10       3 O2      5.331296        2.821200
    7 O6        2 O1      5.359430        2.836088
   18 N2        1 DY1     5.379215        2.846558
   14 O13       4 O3      5.388663        2.851557
   21 N5        1 DY1     5.400828        2.857995
   19 N3        1 DY1     5.401997        2.858614
   20 N4        1 DY1     5.412994        2.864433
   17 N1        1 DY1     5.420381        2.868342
    9 O8        6 O5      5.420933        2.868634
   11 O10       9 O8      5.451493        2.884806
   14 O13       2 O1      5.506527        2.913929
    7 O6        5 O4      5.509220        2.915354
   10 O9        6 O5      5.568203        2.946566
   11 O10       4 O3      5.599596        2.963178
   14 O13       3 O2      5.617493        2.972649
--


            Nuclear Potential Energy           3676.10779193 au

--- Stop Module: gateway at Wed Jan 29 01:13:51 2025 /rc=_RC_ALL_IS_WELL_ ---
*** files: xmldump
    saved to directory /media/korden/5fb66ce1-8053-4a4f-9303-c4fa91c2cea8/home/korden/calc/orca/Artem/PyH2DyNO34

--- Start Module: seward at Wed Jan 29 01:13:51 2025 ---

()()()()()()()()()()()()()()()()()()()()()()()()()()()()()()()()()()()()()()()()()()()()()()()()()()

                                              &SEWARD

                                   only a single process is used
                       available to each process: 32 GB of memory, 1 thread?
                                             pid: 41528
()()()()()()()()()()()()()()()()()()()()()()()()()()()()()()()()()()()()()()()()()()()()()()()()()()

               SEWARD will generate:
                  Multipole Moment integrals up to order  2
                  Kinetic Energy integrals
                  Nuclear Attraction integrals (point charge)
                  One-Electron Hamiltonian integrals
                  Velocity integrals
                  Relativistic Douglas-Kroll integrals
                  Orbital angular momentum around (-4.1161 10.2997 15.9221 )
                  Velocity quadrupole around (-4.2098 10.3384 15.8926 )
                  Atomic mean-field integrals
                  Cholesky decomposed two-electron repulsion integrals
                   - CD Threshold:   0.10E-07

                   Integrals are discarded if absolute value <: 0.10E-39
                   Integral cutoff threshold is set to       <: 0.10E-39

            Nuclear Potential Energy           3676.10779193 au


      Basis set specifications :
      Symmetry species         a  
      Basis functions          704

      Cholesky vectors        9504


 Sorry, Molden does not know how to handle
 functions with angular momentum larger than g
--- Stop Module: seward at Wed Jan 29 03:43:25 2025 /rc=_RC_ALL_IS_WELL_ ---
*** files: py2dynh34_sa.GssOrb xmldump
    saved to directory /media/korden/5fb66ce1-8053-4a4f-9303-c4fa91c2cea8/home/korden/calc/orca/Artem/PyH2DyNO34
--- Module seward spent 2 hours 29 minutes 34 seconds ---

*** symbolic link created: INPORB -> py2dynh34_sa.GssOrb
--- Start Module: rasscf at Wed Jan 29 03:43:25 2025 ---

()()()()()()()()()()()()()()()()()()()()()()()()()()()()()()()()()()()()()()()()()()()()()()()()()()

                                              &RASSCF

                                   only a single process is used
                       available to each process: 32 GB of memory, 1 thread?
                                             pid: 41665
()()()()()()()()()()()()()()()()()()()()()()()()()()()()()()()()()()()()()()()()()()()()()()()()()()


      Header of the ONEINT file:
      --------------------------
      
      Integrals generated by Gateway/Seward, Wed Jan 29 01:13:51 2025


      OrdInt status: non-squared


      Cartesian coordinates in Angstrom:
      -----------------------------------------------------
      No.  Label        X            Y            Z        
      -----------------------------------------------------
       1   DY1       -2.17816600   5.45038800   8.42560700
       2   O1        -2.31776200   6.37961400  10.69792900
       3   O2        -4.44235100   6.08052200   8.99696100
       4   O3        -4.26991700   4.53398500   7.50367500
       5   O4        -0.23510100   5.66588200   6.99914100
       6   O5        -1.25963400   3.20874600   8.65270300
       7   O6        -1.63502600   7.83143800   8.35923800
       8   O7        -2.09878600   1.65929600   9.92024700
       9   O8        -1.85730700   4.51478600   6.16953800
      10   O9        -0.40032300   5.65773900  10.04779100
      11   O10       -2.95186900   7.10091200   6.82983400
      12   O11       -0.08102800   4.87401800   4.96858900
      13   O12       -6.23804600   5.21927500   8.10640700
      14   O13       -2.96506900   3.65787500   9.88299900
      15   O14       -2.44211700   9.21400400   6.90207200
      16   O15       -0.58130300   6.62938400  11.97901700
      17   N1        -5.03191000   5.27248600   8.19783300
      18   N2        -2.34722800   8.07869800   7.34565500
      19   N3        -1.09800200   6.24318100  10.95076000
      20   N4        -2.11639100   2.80193600   9.51503900
      21   N5        -0.71514900   5.00943600   6.01038900
      -----------------------------------------------------
      Nuclear repulsion energy = 3676.10779193

++    Wave function specifications:
      -----------------------------

      Number of closed shell electrons         214
      Number of electrons in active shells       9
      Max number of holes in RAS1 space          0
      Max nr of electrons in RAS3 space          0
      Number of inactive orbitals              107
      Number of active orbitals                  7
      Number of secondary orbitals             590
      Spin quantum number                      2.5
      State symmetry                             1
--

++    Orbital specifications:
      -----------------------

      Symmetry species                           1
                                                 a
      Frozen orbitals                            0
      Inactive orbitals                        107
      Active orbitals                            7
      RAS1 orbitals                              0
      RAS2 orbitals                              7
      RAS3 orbitals                              0
      Secondary orbitals                       590
      Deleted orbitals                           0
      Number of basis functions                704
--

++    CI expansion specifications:
      ----------------------------

      Number of CSFs                            21
      Number of determinants                    21
      Number of root(s) required                21
      Root chosen for geometry opt.             21
      CI roots used                              1     2     3     4     5     6     7     8     9    10
                                                11    12    13    14    15    16    17    18    19    20
                                                21
      weights                                0.048 0.048 0.048 0.048 0.048 0.048 0.048 0.048 0.048 0.048
                                             0.048 0.048 0.048 0.048 0.048 0.048 0.048 0.048 0.048 0.048
                                             0.048
      highest root included in the CI           21
      max. size of the explicit Hamiltonian     21
--

++    Optimization specifications:
      ----------------------------

      RASSCF algorithm: LK Cholesky
      Maximum number of macro iterations       200
      Maximum number of SX iterations          100
      Threshold for RASSCF energy            0.100E-07
      Threshold for max MO rotation          0.100E+00
      Threshold for max BLB element          0.100E-03
      Level shift parameter                  0.500E+00
      Make Quasi-Newton update
--

      Orbitals from runfile: guessorb orbitals
      The MO-coefficients are taken from guessorb on runfile

      Total molecular charge   -2.00

      ************************************************************************************************************************
      *                                                                                                                      *
      *                                            Wave function control section                                             *
      *                                                                                                                      *
      ************************************************************************************************************************


                                         RASSCF iterations: Energy and convergence statistics
                                         ----------------------------------------------------

      Iter CI   SX   CI       RASSCF       Energy    max ROT     max BLB   max BLB  Level Ln srch  Step   QN   Walltime
          iter iter root      energy       change     param      element    value   shift minimum  type update hh:mm:ss
 Nr of preliminary CI iterations:   1
      Total energies have been shifted. Add               -13000.00 au
        1   1   11    0  -538.24532170    0.00E+00  -0.55E-01   66 120 1  0.47E+00*  0.71   0.00    SX    NO    0:14:06
        2   1   13    0  -541.66904693   -0.34E+01* -0.87E-01   66 120 1  0.23E+00*  0.42   0.00    SX    NO    0:07:37
        3   1   14    0  -542.64012960   -0.97E+00* -0.94E-01   44 135 1 -0.64E-01*  0.43   0.00    SX    NO    0:07:55
        4   1   14    0  -542.80729877   -0.17E+00*  0.85E-02   43 689 1 -0.52E-01*  0.32   0.00    SX    NO    0:08:16
        5   1   13    0  -542.84129470   -0.34E-01* -0.72E-02   43 689 1  0.47E-01*  0.37   1.34    QN   YES    0:08:20
        6   1   13    0  -542.85030565   -0.90E-02*  0.43E-02   43 689 1 -0.25E-01*  0.30   0.86    QN   YES    0:08:20
        7   1   11    0  -542.85145601   -0.12E-02*  0.40E-02   87 115 1 -0.25E-02*  0.33   1.12    QN   YES    0:08:30
        8   1   11    0  -542.85168836   -0.23E-03* -0.22E-02   43 689 1  0.33E-02*  0.33   1.43    QN   YES    0:09:04
        9   1   10    0  -542.85178625   -0.98E-04* -0.85E-03   43 689 1  0.12E-02*  0.33   1.08    QN   YES    0:09:00
       10   1   10    0  -542.85180011   -0.14E-04*  0.40E-03   87 115 1 -0.32E-03*  0.33   1.32    QN   YES    0:09:12
       11   1    9    0  -542.85180398   -0.39E-05*  0.21E-03   43 689 1 -0.25E-03*  0.33   1.18    QN   YES    0:09:26
       12   1    8    0  -542.85180471   -0.73E-06*  0.91E-04   65 115 1 -0.88E-04   0.33   1.19    QN   YES    0:09:28
       13   1    7    0  -542.85180490   -0.20E-06* -0.25E-04   65 115 1 -0.32E-04   0.33   1.26    QN   YES    0:09:36
       14   1    7    0  -542.85180494   -0.35E-07*  0.12E-04   43 689 1  0.20E-04   0.33   1.19    QN   YES    0:09:44
       15   1    6    0  -542.85180494   -0.45E-08   0.60E-05   93 125 1  0.37E-05   0.33   1.05    QN   YES    0:09:47
      Convergence after 15 iterations
       16   1    6    0  -542.85180494   -0.17E-09   0.60E-05  109 694 1 -0.19E-05   0.33   1.05    QN   YES    0:09:59

      ************************************************************************************************************************
                                                      Wave function printout:
                       occupation of active orbitals, and spin coupling of open shells (u,d: Spin up or down)
      ************************************************************************************************************************

      Note: transformation to natural orbitals
      has been made, which may change the order of the CSFs.

      printout of CI-coefficients larger than  0.05 for root  1
      energy=  -13542.886885
      conf/sym  1111111     Coeff  Weight
             1  22uuuuu  -0.27071 0.07328
             2  2u2uuuu  -0.38477 0.14805
             3  u22uuuu   0.12856 0.01653
             4  2uu2uuu   0.14937 0.02231
             5  2uuu2uu  -0.33581 0.11277
             6  2uuuu2u  -0.10531 0.01109
             7  2uuuuu2  -0.11369 0.01292
             9  u2uu2uu   0.14543 0.02115
            10  u2uuu2u  -0.37359 0.13957
            11  u2uuuu2   0.07316 0.00535
            12  uu22uuu  -0.51917 0.26954
            13  uu2u2uu  -0.05145 0.00265
            14  uu2uu2u  -0.30071 0.09043
            17  uuu2u2u  -0.08903 0.00793
            18  uuuu22u   0.22155 0.04908
            19  uuu2uu2   0.12135 0.01473

      printout of CI-coefficients larger than  0.05 for root  2
      energy=  -13542.886744
      conf/sym  1111111     Coeff  Weight
             1  22uuuuu  -0.08980 0.00806
             3  u22uuuu   0.66698 0.44487
             4  2uu2uuu   0.36922 0.13633
             5  2uuu2uu   0.25803 0.06658
             6  2uuuu2u  -0.13663 0.01867
             7  2uuuuu2   0.10240 0.01049
             8  u2u2uuu  -0.22475 0.05051
            10  u2uuu2u   0.05816 0.00338
            11  u2uuuu2   0.06467 0.00418
            13  uu2u2uu  -0.13561 0.01839
            14  uu2uu2u   0.25752 0.06632
            15  uu2uuu2  -0.17946 0.03221
            16  uuu22uu  -0.21010 0.04414
            17  uuu2u2u   0.19195 0.03684
            18  uuuu22u   0.18491 0.03419
            19  uuu2uu2  -0.12631 0.01595
            20  uuuu2u2   0.06948 0.00483

      printout of CI-coefficients larger than  0.05 for root  3
      energy=  -13542.886666
      conf/sym  1111111     Coeff  Weight
             1  22uuuuu  -0.34733 0.12064
             3  u22uuuu  -0.18434 0.03398
             4  2uu2uuu  -0.05215 0.00272
             5  2uuu2uu  -0.05925 0.00351
             6  2uuuu2u   0.21041 0.04427
             8  u2u2uuu  -0.37240 0.13868
             9  u2uu2uu  -0.39189 0.15358
            10  u2uuu2u   0.05339 0.00285
            11  u2uuuu2  -0.07225 0.00522
            12  uu22uuu   0.10218 0.01044
            13  uu2u2uu  -0.16548 0.02738
            14  uu2uu2u   0.24079 0.05798
            16  uuu22uu  -0.19870 0.03948
            17  uuu2u2u  -0.50019 0.25019
            18  uuuu22u   0.28850 0.08323
            19  uuu2uu2   0.14579 0.02126

      printout of CI-coefficients larger than  0.05 for root  4
      energy=  -13542.886447
      conf/sym  1111111     Coeff  Weight
             2  2u2uuuu   0.67026 0.44924
             3  u22uuuu   0.08552 0.00731
             4  2uu2uuu   0.19777 0.03911
             5  2uuu2uu  -0.26843 0.07206
             6  2uuuu2u  -0.10472 0.01097
             7  2uuuuu2  -0.06214 0.00386
             8  u2u2uuu  -0.40208 0.16167
             9  u2uu2uu  -0.11853 0.01405
            12  uu22uuu  -0.10339 0.01069
            14  uu2uu2u  -0.23342 0.05449
            16  uuu22uu   0.23494 0.05520
            17  uuu2u2u   0.10758 0.01157
            18  uuuu22u  -0.07351 0.00540
            19  uuu2uu2   0.30154 0.09092
            20  uuuu2u2   0.05695 0.00324
            21  uuuuu22   0.08742 0.00764

      printout of CI-coefficients larger than  0.05 for root  5
      energy=  -13542.886176
      conf/sym  1111111     Coeff  Weight
             1  22uuuuu   0.32049 0.10271
             2  2u2uuuu  -0.10184 0.01037
             3  u22uuuu  -0.14521 0.02109
             4  2uu2uuu   0.31436 0.09882
             5  2uuu2uu  -0.15973 0.02551
             6  2uuuu2u   0.57249 0.32774
             7  2uuuuu2  -0.08894 0.00791
             8  u2u2uuu  -0.08362 0.00699
             9  u2uu2uu   0.08748 0.00765
            10  u2uuu2u   0.06345 0.00403
            11  u2uuuu2   0.29397 0.08642
            12  uu22uuu   0.16811 0.02826
            13  uu2u2uu  -0.29677 0.08808
            14  uu2uu2u  -0.24682 0.06092
            15  uu2uuu2  -0.10043 0.01009
            16  uuu22uu  -0.09262 0.00858
            17  uuu2u2u   0.16462 0.02710
            18  uuuu22u   0.14973 0.02242
            21  uuuuu22  -0.22997 0.05289

      printout of CI-coefficients larger than  0.05 for root  6
      energy=  -13542.885788
      conf/sym  1111111     Coeff  Weight
             1  22uuuuu   0.26811 0.07188
             2  2u2uuuu  -0.12714 0.01617
             5  2uuu2uu   0.24044 0.05781
             7  2uuuuu2   0.06752 0.00456
             8  u2u2uuu  -0.06609 0.00437
             9  u2uu2uu  -0.13544 0.01834
            10  u2uuu2u  -0.49040 0.24049
            11  u2uuuu2   0.16882 0.02850
            12  uu22uuu   0.25214 0.06357
            13  uu2u2uu   0.19029 0.03621
            14  uu2uu2u   0.13131 0.01724
            15  uu2uuu2   0.06058 0.00367
            16  uuu22uu   0.45345 0.20562
            18  uuuu22u   0.36195 0.13101
            19  uuu2uu2   0.31184 0.09724

      printout of CI-coefficients larger than  0.05 for root  7
      energy=  -13542.885666
      conf/sym  1111111     Coeff  Weight
             2  2u2uuuu  -0.07034 0.00495
             3  u22uuuu  -0.06704 0.00449
             4  2uu2uuu  -0.32544 0.10591
             6  2uuuu2u  -0.14710 0.02164
             8  u2u2uuu  -0.27633 0.07636
             9  u2uu2uu   0.41036 0.16839
            10  u2uuu2u   0.08180 0.00669
            11  u2uuuu2  -0.45076 0.20318
            12  uu22uuu   0.21167 0.04480
            13  uu2u2uu  -0.26430 0.06985
            14  uu2uu2u  -0.18933 0.03585
            15  uu2uuu2  -0.12666 0.01604
            17  uuu2u2u   0.18390 0.03382
            18  uuuu22u   0.36928 0.13637
            20  uuuu2u2  -0.23508 0.05526
            21  uuuuu22   0.11731 0.01376

      printout of CI-coefficients larger than  0.05 for root  8
      energy=  -13542.885241
      conf/sym  1111111     Coeff  Weight
             1  22uuuuu  -0.39845 0.15876
             2  2u2uuuu   0.06917 0.00478
             3  u22uuuu   0.08750 0.00766
             4  2uu2uuu  -0.12122 0.01470
             5  2uuu2uu  -0.11096 0.01231
             6  2uuuu2u   0.31929 0.10195
             7  2uuuuu2   0.26580 0.07065
             8  u2u2uuu   0.09501 0.00903
             9  u2uu2uu   0.17952 0.03223
            10  u2uuu2u  -0.08516 0.00725
            11  u2uuuu2   0.28533 0.08141
            12  uu22uuu   0.24668 0.06085
            15  uu2uuu2   0.18290 0.03345
            16  uuu22uu  -0.16358 0.02676
            17  uuu2u2u   0.24580 0.06042
            18  uuuu22u  -0.06842 0.00468
            19  uuu2uu2   0.21594 0.04663
            20  uuuu2u2  -0.08025 0.00644
            21  uuuuu22   0.50668 0.25672

      printout of CI-coefficients larger than  0.05 for root  9
      energy=  -13542.884960
      conf/sym  1111111     Coeff  Weight
             1  22uuuuu  -0.09419 0.00887
             3  u22uuuu  -0.07126 0.00508
             4  2uu2uuu   0.14806 0.02192
             7  2uuuuu2   0.11508 0.01324
             8  u2u2uuu   0.05324 0.00283
             9  u2uu2uu   0.31683 0.10038
            10  u2uuu2u   0.21611 0.04670
            11  u2uuuu2   0.16678 0.02782
            12  uu22uuu   0.05178 0.00268
            13  uu2u2uu   0.31996 0.10237
            15  uu2uuu2  -0.70679 0.49955
            16  uuu22uu   0.17386 0.03023
            17  uuu2u2u  -0.32978 0.10875
            19  uuu2uu2   0.12090 0.01462
            21  uuuuu22   0.09910 0.00982

      printout of CI-coefficients larger than  0.05 for root 10
      energy=  -13542.884527
      conf/sym  1111111     Coeff  Weight
             1  22uuuuu   0.20676 0.04275
             3  u22uuuu   0.26134 0.06830
             4  2uu2uuu  -0.30941 0.09573
             5  2uuu2uu  -0.24904 0.06202
             6  2uuuu2u   0.16667 0.02778
             7  2uuuuu2  -0.19239 0.03701
             9  u2uu2uu   0.05047 0.00255
            10  u2uuu2u   0.09034 0.00816
            13  uu2u2uu  -0.10011 0.01002
            14  uu2uu2u   0.12289 0.01510
            15  uu2uuu2  -0.05323 0.00283
            16  uuu22uu   0.25052 0.06276
            17  uuu2u2u  -0.15206 0.02312
            18  uuuu22u   0.14965 0.02240
            19  uuu2uu2  -0.25698 0.06604
            20  uuuu2u2   0.57344 0.32883
            21  uuuuu22   0.35006 0.12254

      printout of CI-coefficients larger than  0.05 for root 11
      energy=  -13542.884445
      conf/sym  1111111     Coeff  Weight
             1  22uuuuu  -0.09040 0.00817
             2  2u2uuuu  -0.14103 0.01989
             3  u22uuuu  -0.10460 0.01094
             4  2uu2uuu   0.20538 0.04218
             5  2uuu2uu  -0.29905 0.08943
             6  2uuuu2u  -0.23631 0.05584
             7  2uuuuu2  -0.28160 0.07930
             9  u2uu2uu  -0.22049 0.04862
            10  u2uuu2u   0.14954 0.02236
            11  u2uuuu2   0.18065 0.03263
            12  uu22uuu   0.15881 0.02522
            13  uu2u2uu  -0.05710 0.00326
            14  uu2uu2u   0.19070 0.03637
            16  uuu22uu   0.27335 0.07472
            17  uuu2u2u   0.09657 0.00932
            19  uuu2uu2  -0.36531 0.13345
            20  uuuu2u2  -0.47265 0.22340
            21  uuuuu22   0.28840 0.08317

      printout of CI-coefficients larger than  0.05 for root 12
      energy=  -13542.852481
      conf/sym  1111111     Coeff  Weight
             2  2u2uuuu   0.51244 0.26260
             3  u22uuuu  -0.08331 0.00694
             4  2uu2uuu   0.05222 0.00273
             5  2uuu2uu  -0.17729 0.03143
             6  2uuuu2u  -0.17760 0.03154
             8  u2u2uuu   0.46404 0.21533
             9  u2uu2uu   0.15191 0.02308
            10  u2uuu2u  -0.26393 0.06966
            11  u2uuuu2   0.07894 0.00623
            12  uu22uuu   0.06676 0.00446
            13  uu2u2uu  -0.13347 0.01781
            14  uu2uu2u   0.16522 0.02730
            15  uu2uuu2  -0.05438 0.00296
            16  uuu22uu  -0.25021 0.06260
            17  uuu2u2u  -0.15922 0.02535
            18  uuuu22u   0.41546 0.17261
            19  uuu2uu2  -0.14692 0.02158
            20  uuuu2u2  -0.07164 0.00513
            21  uuuuu22  -0.08952 0.00801

      printout of CI-coefficients larger than  0.05 for root 13
      energy=  -13542.851931
      conf/sym  1111111     Coeff  Weight
             1  22uuuuu  -0.14101 0.01988
             4  2uu2uuu  -0.40433 0.16348
             5  2uuu2uu   0.06222 0.00387
             6  2uuuu2u  -0.34473 0.11884
             9  u2uu2uu  -0.24558 0.06031
            10  u2uuu2u  -0.08685 0.00754
            11  u2uuuu2   0.46827 0.21928
            12  uu22uuu   0.20651 0.04264
            13  uu2u2uu  -0.34979 0.12236
            14  uu2uu2u  -0.29642 0.08786
            15  uu2uuu2  -0.28705 0.08240
            17  uuu2u2u   0.06999 0.00490
            18  uuuu22u  -0.14035 0.01970
            20  uuuu2u2   0.11100 0.01232
            21  uuuuu22  -0.17254 0.02977

      printout of CI-coefficients larger than  0.05 for root 14
      energy=  -13542.851871
      conf/sym  1111111     Coeff  Weight
             1  22uuuuu  -0.35273 0.12442
             2  2u2uuuu   0.13349 0.01782
             3  u22uuuu   0.19594 0.03839
             4  2uu2uuu  -0.05443 0.00296
             6  2uuuu2u   0.18412 0.03390
             7  2uuuuu2  -0.37371 0.13966
             8  u2u2uuu  -0.14862 0.02209
             9  u2uu2uu   0.17582 0.03091
            10  u2uuu2u  -0.29653 0.08793
            11  u2uuuu2  -0.06834 0.00467
            12  uu22uuu   0.35177 0.12374
            13  uu2u2uu   0.31290 0.09791
            14  uu2uu2u  -0.19860 0.03944
            15  uu2uuu2   0.07524 0.00566
            16  uuu22uu   0.08000 0.00640
            17  uuu2u2u  -0.11666 0.01361
            18  uuuu22u  -0.08978 0.00806
            19  uuu2uu2  -0.33997 0.11558
            21  uuuuu22  -0.29184 0.08517

      printout of CI-coefficients larger than  0.05 for root 15
      energy=  -13542.851669
      conf/sym  1111111     Coeff  Weight
             1  22uuuuu   0.22026 0.04852
             3  u22uuuu  -0.27810 0.07734
             5  2uuu2uu   0.19043 0.03627
             6  2uuuu2u  -0.06638 0.00441
             7  2uuuuu2  -0.28864 0.08331
             8  u2u2uuu  -0.25756 0.06634
             9  u2uu2uu  -0.06893 0.00475
            10  u2uuu2u  -0.34594 0.11967
            13  uu2u2uu   0.17163 0.02946
            15  uu2uuu2  -0.24236 0.05874
            16  uuu22uu  -0.48363 0.23390
            17  uuu2u2u   0.09757 0.00952
            18  uuuu22u  -0.10225 0.01045
            19  uuu2uu2  -0.12885 0.01660
            20  uuuu2u2   0.10656 0.01136
            21  uuuuu22   0.42870 0.18378

      printout of CI-coefficients larger than  0.05 for root 16
      energy=  -13542.851613
      conf/sym  1111111     Coeff  Weight
             1  22uuuuu   0.26904 0.07238
             3  u22uuuu   0.19628 0.03853
             5  2uuu2uu   0.10399 0.01081
             6  2uuuu2u  -0.10465 0.01095
             7  2uuuuu2  -0.26853 0.07211
             8  u2u2uuu  -0.13088 0.01713
             9  u2uu2uu   0.35975 0.12942
            11  u2uuuu2   0.24796 0.06148
            13  uu2u2uu  -0.23803 0.05666
            14  uu2uu2u   0.10793 0.01165
            15  uu2uuu2   0.27277 0.07440
            16  uuu22uu  -0.10187 0.01038
            17  uuu2u2u  -0.47981 0.23022
            18  uuuu22u  -0.26346 0.06941
            19  uuu2uu2   0.24275 0.05893
            20  uuuu2u2  -0.25904 0.06710
            21  uuuuu22   0.07078 0.00501

      printout of CI-coefficients larger than  0.05 for root 17
      energy=  -13542.851435
      conf/sym  1111111     Coeff  Weight
             1  22uuuuu   0.21108 0.04455
             3  u22uuuu   0.35880 0.12873
             4  2uu2uuu  -0.33066 0.10934
             5  2uuu2uu  -0.30916 0.09558
             6  2uuuu2u   0.26162 0.06845
             7  2uuuuu2  -0.06015 0.00362
             8  u2u2uuu   0.07174 0.00515
             9  u2uu2uu  -0.23438 0.05493
            10  u2uuu2u  -0.18814 0.03540
            11  u2uuuu2  -0.17908 0.03207
            12  uu22uuu  -0.09861 0.00972
            13  uu2u2uu   0.08566 0.00734
            14  uu2uu2u   0.19610 0.03845
            15  uu2uuu2  -0.35574 0.12655
            16  uuu22uu  -0.11069 0.01225
            17  uuu2u2u   0.08897 0.00792
            18  uuuu22u  -0.15724 0.02472
            19  uuu2uu2   0.15574 0.02426
            20  uuuu2u2  -0.39754 0.15803
            21  uuuuu22  -0.11375 0.01294

      printout of CI-coefficients larger than  0.05 for root 18
      energy=  -13542.851367
      conf/sym  1111111     Coeff  Weight
             1  22uuuuu  -0.05800 0.00336
             2  2u2uuuu  -0.20145 0.04058
             3  u22uuuu  -0.12829 0.01646
             4  2uu2uuu   0.18359 0.03370
             5  2uuu2uu  -0.38593 0.14894
             6  2uuuu2u  -0.23135 0.05352
             7  2uuuuu2  -0.19820 0.03928
             9  u2uu2uu   0.16635 0.02767
            10  u2uuu2u  -0.05520 0.00305
            11  u2uuuu2  -0.16340 0.02670
            12  uu22uuu   0.36249 0.13140
            14  uu2uu2u   0.33785 0.11414
            15  uu2uuu2  -0.05428 0.00295
            16  uuu22uu  -0.08890 0.00790
            17  uuu2u2u   0.17553 0.03081
            18  uuuu22u  -0.20700 0.04285
            19  uuu2uu2   0.34538 0.11929
            20  uuuu2u2   0.34525 0.11920
            21  uuuuu22  -0.19054 0.03630

      printout of CI-coefficients larger than  0.05 for root 19
      energy=  -13542.727622
      conf/sym  1111111     Coeff  Weight
             1  22uuuuu  -0.08396 0.00705
             2  2u2uuuu   0.08878 0.00788
             3  u22uuuu  -0.20648 0.04263
             4  2uu2uuu  -0.30585 0.09355
             7  2uuuuu2  -0.10815 0.01170
             8  u2u2uuu  -0.30725 0.09440
             9  u2uu2uu   0.26522 0.07034
            10  u2uuu2u   0.10013 0.01003
            11  u2uuuu2   0.38423 0.14763
            12  uu22uuu  -0.35773 0.12797
            13  uu2u2uu   0.18383 0.03379
            14  uu2uu2u   0.40886 0.16716
            17  uuu2u2u   0.28468 0.08104
            18  uuuu22u   0.14789 0.02187
            21  uuuuu22  -0.28340 0.08032

      printout of CI-coefficients larger than  0.05 for root 20
      energy=  -13542.727538
      conf/sym  1111111     Coeff  Weight
             1  22uuuuu  -0.20422 0.04171
             2  2u2uuuu   0.08790 0.00773
             3  u22uuuu  -0.16808 0.02825
             4  2uu2uuu   0.09798 0.00960
             5  2uuu2uu   0.22972 0.05277
             6  2uuuu2u   0.20346 0.04140
             9  u2uu2uu   0.13417 0.01800
            10  u2uuu2u  -0.35508 0.12608
            11  u2uuuu2  -0.15375 0.02364
            12  uu22uuu  -0.18119 0.03283
            13  uu2u2uu  -0.51991 0.27031
            14  uu2uu2u   0.27129 0.07360
            15  uu2uuu2  -0.20566 0.04230
            16  uuu22uu   0.34095 0.11625
            18  uuuu22u  -0.31292 0.09792
            19  uuu2uu2  -0.11635 0.01354

      printout of CI-coefficients larger than  0.05 for root 21
      energy=  -13542.726831
      conf/sym  1111111     Coeff  Weight
             1  22uuuuu  -0.20054 0.04021
             2  2u2uuuu   0.06931 0.00480
             5  2uuu2uu   0.34104 0.11631
             6  2uuuu2u   0.12624 0.01594
             7  2uuuuu2  -0.63917 0.40853
             8  u2u2uuu   0.35361 0.12504
             9  u2uu2uu  -0.11495 0.01321
            10  u2uuu2u   0.24163 0.05838
            12  uu22uuu  -0.08303 0.00689
            13  uu2u2uu  -0.05405 0.00292
            15  uu2uuu2  -0.06409 0.00411
            17  uuu2u2u   0.16144 0.02606
            18  uuuu22u   0.20582 0.04236
            19  uuu2uu2   0.35285 0.12450
            21  uuuuu22   0.07281 0.00530

      Natural orbitals and occupation numbers for root  1
      sym 1:   1.684860   1.116630   1.684860   1.116630   1.198510   1.198510   1.000000

      Natural orbitals and occupation numbers for root  2
      sym 1:   1.000000   1.592606   1.592606   1.394985   1.394985   1.012409   1.012409

      Natural orbitals and occupation numbers for root  3
      sym 1:   1.013664   1.593908   1.000000   1.593908   1.392428   1.392428   1.013664

      Natural orbitals and occupation numbers for root  4
      sym 1:   1.600638   1.372116   1.600638   1.372116   1.027246   1.027246   1.000000

      Natural orbitals and occupation numbers for root  5
      sym 1:   1.631602   1.327623   1.327623   1.000000   1.040776   1.631602   1.040776

      Natural orbitals and occupation numbers for root  6
      sym 1:   1.000000   1.397707   1.023909   1.578384   1.578384   1.397707   1.023909

      Natural orbitals and occupation numbers for root  7
      sym 1:   1.000000   1.655229   1.123269   1.221501   1.655229   1.221501   1.123269

      Natural orbitals and occupation numbers for root  8
      sym 1:   1.623220   1.283689   1.093091   1.093091   1.000000   1.283689   1.623220

      Natural orbitals and occupation numbers for root  9
      sym 1:   1.000000   1.234727   1.636268   1.129005   1.234727   1.129005   1.636268

      Natural orbitals and occupation numbers for root 10
      sym 1:   1.298320   1.000000   1.092866   1.092866   1.608813   1.298320   1.608813

      Natural orbitals and occupation numbers for root 11
      sym 1:   1.287098   1.102527   1.000000   1.287098   1.610375   1.102527   1.610375

      Natural orbitals and occupation numbers for root 12
      sym 1:   1.347460   1.347460   1.315141   1.315141   1.337398   1.337398   1.000000

      Natural orbitals and occupation numbers for root 13
      sym 1:   1.333019   1.309962   1.357019   1.000000   1.333019   1.309962   1.357019

      Natural orbitals and occupation numbers for root 14
      sym 1:   1.366549   1.305652   1.327799   1.327799   1.000000   1.305652   1.366549

      Natural orbitals and occupation numbers for root 15
      sym 1:   1.362033   1.314347   1.000000   1.323620   1.323620   1.314347   1.362033

      Natural orbitals and occupation numbers for root 16
      sym 1:   1.000000   1.326073   1.326073   1.314752   1.359176   1.314752   1.359176

      Natural orbitals and occupation numbers for root 17
      sym 1:   1.327519   1.327519   1.304765   1.000000   1.367716   1.304765   1.367716

      Natural orbitals and occupation numbers for root 18
      sym 1:   1.321044   1.000000   1.305947   1.305947   1.373009   1.321044   1.373009

      Natural orbitals and occupation numbers for root 19
      sym 1:   1.070767   1.070767   1.640677   1.640677   1.000000   1.288556   1.288556

      Natural orbitals and occupation numbers for root 20
      sym 1:   1.000000   1.283932   1.643433   1.072635   1.643433   1.283932   1.072635

      Natural orbitals and occupation numbers for root 21
      sym 1:   1.649834   1.279315   1.000000   1.279315   1.070851   1.070851   1.649834

      ************************************************************************************************************************
      *                                                                                                                      *
      *                                                    Final results                                                     *
      *                                                                                                                      *
      ************************************************************************************************************************


++    Wave function specifications:
      -----------------------------

      Number of closed shell electrons         214
      Number of electrons in active shells       9
      Max number of holes in RAS1 space          0
      Max nr of electrons in RAS3 space          0
      Number of inactive orbitals              107
      Number of active orbitals                  7
      Number of secondary orbitals             590
      Spin quantum number                      2.5
      State symmetry                             1
--

++    Orbital specifications:
      -----------------------

      Symmetry species                           1
                                                 a
      Frozen orbitals                            0
      Inactive orbitals                        107
      Active orbitals                            7
      RAS1 orbitals                              0
      RAS2 orbitals                              7
      RAS3 orbitals                              0
      Secondary orbitals                       590
      Deleted orbitals                           0
      Number of basis functions                704
--

++    CI expansion specifications:
      ----------------------------

      Number of CSFs                            21
      Number of determinants                    21
      Number of root(s) required                21
      CI roots used                              1     2     3     4     5     6     7     8     9    10
                                                11    12    13    14    15    16    17    18    19    20
                                                21
      weights                                0.048 0.048 0.048 0.048 0.048 0.048 0.048 0.048 0.048 0.048
                                             0.048 0.048 0.048 0.048 0.048 0.048 0.048 0.048 0.048 0.048
                                             0.048
      highest root included in the CI           21
      Root passed to geometry opt.              21
--

++    Final optimization conditions:
      ------------------------------

      Average CI energy                          -13542.85180494
      RASSCF energy for state 21                 -13542.72683149
      Super-CI energy                                -0.00000000
      RASSCF energy change                           -0.00000000
      Max change in MO coefficients               0.426E-05
      Max non-diagonal density matrix element     0.604E-05
      Maximum BLB matrix element                 -0.189E-05
      (orbital pair 109, 694 in symmetry   1)
      Norm of electronic gradient            0.381E+00
--


      Final state energy(ies):
      ------------------------

::    RASSCF root number  1 Total energy: -13542.88688485
::    RASSCF root number  2 Total energy: -13542.88674396
::    RASSCF root number  3 Total energy: -13542.88666578
::    RASSCF root number  4 Total energy: -13542.88644723
::    RASSCF root number  5 Total energy: -13542.88617639
::    RASSCF root number  6 Total energy: -13542.88578837
::    RASSCF root number  7 Total energy: -13542.88566603
::    RASSCF root number  8 Total energy: -13542.88524074
::    RASSCF root number  9 Total energy: -13542.88495971
::    RASSCF root number 10 Total energy: -13542.88452666
::    RASSCF root number 11 Total energy: -13542.88444492
::    RASSCF root number 12 Total energy: -13542.85248052
::    RASSCF root number 13 Total energy: -13542.85193127
::    RASSCF root number 14 Total energy: -13542.85187119
::    RASSCF root number 15 Total energy: -13542.85166897
::    RASSCF root number 16 Total energy: -13542.85161284
::    RASSCF root number 17 Total energy: -13542.85143541
::    RASSCF root number 18 Total energy: -13542.85136736
::    RASSCF root number 19 Total energy: -13542.72762236
::    RASSCF root number 20 Total energy: -13542.72753772
::    RASSCF root number 21 Total energy: -13542.72683149

++    Molecular orbitals:
      -------------------

      Pseudonatural active orbitals and approximate occupation numbers


      MOLECULAR ORBITALS FOR SYMMETRY SPECIES 1: a  

      INDEX  ENERGY  OCCUPATION COEFFICIENTS ...
          1-1983.7651    2.0000                                                                                                           
                 1 DY1    1s     ( 1.0000)
          2 -335.0788    2.0000                                                                                                           
                 2 DY1    2s     ( 1.0000)
          3 -297.8897    2.0000                                                                                                           
                16 DY1    2py    (-0.9551)  23 DY1    2pz    ( 0.2962)
          4 -297.8897    2.0000                                                                                                           
                 9 DY1    2px    ( 0.9812)  23 DY1    2pz    ( 0.1819)
          5 -297.8897    2.0000                                                                                                           
                 9 DY1    2px    (-0.1926)  16 DY1    2py    ( 0.2894)  23 DY1    2pz    ( 0.9376)
          6  -76.5638    2.0000                                                                                                           
                 3 DY1    3s     ( 1.0000)
          7  -64.8421    2.0000                                                                                                           
                17 DY1    3py    (-0.9398)  24 DY1    3pz    ( 0.3403)
          8  -64.8420    2.0000                                                                                                           
                10 DY1    3px    ( 0.9608)  24 DY1    3pz    ( 0.2691)
          9  -64.8420    2.0000                                                                                                           
                10 DY1    3px    (-0.2757)  17 DY1    3py    ( 0.3350)  24 DY1    3pz    ( 0.9010)
         10  -49.3882    2.0000                                                                                                           
                35 DY1    3d1-   ( 0.5750)  40 DY1    3d0    ( 0.3731)  50 DY1    3d2+   ( 0.7236)
         11  -49.3881    2.0000                                                                                                           
                30 DY1    3d2-   (-0.2175)  35 DY1    3d1-   ( 0.3823)  40 DY1    3d0    ( 0.1703)  45 DY1    3d1+   ( 0.7921)
                50 DY1    3d2+   (-0.3874)
         12  -49.3881    2.0000                                                                                                           
                30 DY1    3d2-   ( 0.8001)  35 DY1    3d1-   (-0.1800)  40 DY1    3d0    (-0.2822)  45 DY1    3d1+   ( 0.4601)
                50 DY1    3d2+   ( 0.1899)
         13  -49.3881    2.0000                                                                                                           
                30 DY1    3d2-   (-0.5221)  35 DY1    3d1-   (-0.5152)  40 DY1    3d0    (-0.1463)  45 DY1    3d1+   ( 0.3969)
                50 DY1    3d2+   ( 0.5320)
         14  -49.3881    2.0000                                                                                                           
                30 DY1    3d2-   ( 0.1836)  35 DY1    3d1-   (-0.4748)  40 DY1    3d0    ( 0.8548)
         15  -20.3974    2.0000                                                                                                           
               285 O7     1s     (-0.9982)
         16  -20.3914    2.0000                                                                                                           
               435 O12    1s     ( 0.9982)
         17  -20.3907    2.0000                                                                                                           
               525 O15    1s     ( 0.9982)
         18  -20.3888    2.0000                                                                                                           
               465 O13    1s     ( 0.9986)
         19  -20.3883    2.0000                                                                                                           
               495 O14    1s     ( 0.9982)
         20  -20.3875    2.0000                                                                                                           
               405 O11    1s     (-0.9982)
         21  -20.3851    2.0000                                                                                                           
               375 O10    1s     (-0.9985)
         22  -20.3835    2.0000                                                                                                           
               315 O8     1s     ( 0.9986)
         23  -20.3832    2.0000                                                                                                           
               105 O1     1s     (-0.9986)
         24  -20.3829    2.0000                                                                                                           
               255 O6     1s     (-0.9985)
         25  -20.3814    2.0000                                                                                                           
               195 O4     1s     ( 0.1031) 225 O5     1s     (-0.9933)
         26  -20.3814    2.0000                                                                                                           
               195 O4     1s     (-0.9933) 225 O5     1s     (-0.1032)
         27  -20.3785    2.0000                                                                                                           
               165 O3     1s     ( 0.9986)
         28  -20.3782    2.0000                                                                                                           
               345 O9     1s     ( 0.9987)
         29  -20.3770    2.0000                                                                                                           
               135 O2     1s     ( 0.9986)
         30  -16.0823    2.0000                                                                                                           
                 4 DY1    4s     ( 0.9997)
         31  -15.6850    2.0000                                                                                                           
               645 N4     1s     (-1.0006)
         32  -15.6820    2.0000                                                                                                           
               585 N2     1s     (-1.0006)
         33  -15.6796    2.0000                                                                                                           
               615 N3     1s     (-1.0006)
         34  -15.6795    2.0000                                                                                                           
               675 N5     1s     ( 1.0006)
         35  -15.6776    2.0000                                                                                                           
               555 N1     1s     ( 1.0006)
         36  -12.1058    2.0000                                                                                                           
                18 DY1    4py    (-0.9598)  25 DY1    4pz    ( 0.2766)
         37  -12.1056    2.0000                                                                                                           
                11 DY1    4px    ( 0.2975)  18 DY1    4py    ( 0.2507)  25 DY1    4pz    ( 0.9212)
         38  -12.1055    2.0000                                                                                                           
                11 DY1    4px    ( 0.9535)  18 DY1    4py    (-0.1263)  25 DY1    4pz    (-0.2735)
         39   -6.4927    2.0000                                                                                                           
                36 DY1    4d1-   ( 0.5761)  41 DY1    4d0    ( 0.4422)  51 DY1    4d2+   ( 0.6856)
         40   -6.4925    2.0000                                                                                                           
                31 DY1    4d2-   (-0.1337)  36 DY1    4d1-   (-0.7903)  41 DY1    4d0    ( 0.2498)  46 DY1    4d1+   (-0.1663)
                51 DY1    4d2+   ( 0.5170)
         41   -6.4924    2.0000                                                                                                           
                31 DY1    4d2-   ( 0.9488)  41 DY1    4d0    (-0.2071)  46 DY1    4d1+   (-0.1525)  51 DY1    4d2+   ( 0.1597)
      
         42   -6.4924    2.0000                                                                                                           
                36 DY1    4d1-   (-0.1440)  41 DY1    4d0    (-0.1600)  46 DY1    4d1+   ( 0.9561)  51 DY1    4d2+   ( 0.1840)
      
         43   -6.4924    2.0000                                                                                                           
                31 DY1    4d2-   (-0.2733)  36 DY1    4d1-   ( 0.1206)  41 DY1    4d0    (-0.8206)  46 DY1    4d1+   (-0.1847)
                51 DY1    4d2+   ( 0.4506)
         44   -2.1141    2.0000                                                                                                           
                 5 DY1    5s     ( 0.9855)
         45   -1.4268    2.0000                                                                                                           
               226 O5     2s     (-0.2922) 256 O6     2s     ( 0.1205) 286 O7     2s     (-0.3426) 292 O7     2py    (-0.1144)
               376 O10    2s     ( 0.1220) 466 O13    2s     (-0.3206) 496 O14    2s     ( 0.1197) 586 N2     2s     ( 0.1263)
               646 N4     2s     (-0.3356) 647 N4     3s     ( 0.1411)
         46   -1.4249    2.0000                                                                                                           
               226 O5     2s     ( 0.1037) 256 O6     2s     ( 0.3124) 286 O7     2s     ( 0.1238) 376 O10    2s     ( 0.3188)
               466 O13    2s     ( 0.1139) 496 O14    2s     ( 0.3145) 502 O14    2py    (-0.1037) 586 N2     2s     ( 0.3350)
               587 N2     3s     (-0.1380) 646 N4     2s     ( 0.1203)
         47   -1.4230    2.0000                                                                                                           
               106 O1     2s     ( 0.3433) 109 O1     2px    ( 0.1237) 346 O9     2s     ( 0.3047) 526 O15    2s     ( 0.3534)
               535 O15    2pz    (-0.1058) 616 N3     2s     ( 0.3547) 617 N3     3s     (-0.1463)
         48   -1.4177    2.0000                                                                                                           
               136 O2     2s     ( 0.2973) 166 O3     2s     ( 0.3130) 196 O4     2s     (-0.1175) 316 O8     2s     (-0.1330)
               406 O11    2s     (-0.1253) 436 O12    2s     ( 0.3536) 439 O12    2px    ( 0.1243) 556 N1     2s     ( 0.3347)
               557 N1     3s     (-0.1426) 676 N5     2s     (-0.1244)
         49   -1.4168    2.0000                                                                                                           
               136 O2     2s     ( 0.1125) 166 O3     2s     ( 0.1156) 196 O4     2s     ( 0.3011) 316 O8     2s     ( 0.3337)
               319 O8     2px    ( 0.1108) 406 O11    2s     ( 0.3201) 436 O12    2s     ( 0.1322) 556 N1     2s     ( 0.1303)
               676 N5     2s     ( 0.3413) 677 N5     3s     (-0.1369)
         50   -1.1950    2.0000                                                                                                           
                19 DY1    5py    (-0.1597)  26 DY1    5pz    ( 0.1122) 226 O5     2s     ( 0.2268) 286 O7     2s     (-0.5986)
               292 O7     2py    (-0.1328) 376 O10    2s     (-0.1297) 466 O13    2s     ( 0.4218) 496 O14    2s     ( 0.2167)
               526 O15    2s     (-0.1177) 652 N4     2py    ( 0.2257)
         51   -1.1895    2.0000                                                                                                           
                26 DY1    5pz    (-0.1547) 106 O1     2s     (-0.3942) 166 O3     2s     ( 0.1603) 286 O7     2s     (-0.1075)
               316 O8     2s     ( 0.1232) 346 O9     2s     (-0.2257) 406 O11    2s     (-0.1367) 436 O12    2s     (-0.2077)
               526 O15    2s     ( 0.5869) 535 O15    2pz    (-0.1199) 619 N3     2px    ( 0.1294) 625 N3     2pz    ( 0.1798)
      
         52   -1.1865    2.0000                                                                                                           
                12 DY1    5px    ( 0.1654) 106 O1     2s     (-0.1712) 136 O2     2s     (-0.3105) 166 O3     2s     (-0.2912)
               376 O10    2s     (-0.1958) 406 O11    2s     (-0.1260) 436 O12    2s     ( 0.5438) 439 O12    2px    ( 0.1283)
               496 O14    2s     ( 0.2879) 526 O15    2s     ( 0.1618) 559 N1     2px    (-0.2104) 592 N2     2py    ( 0.1082)
      
         53   -1.1831    2.0000                                                                                                           
               136 O2     2s     ( 0.1157) 166 O3     2s     ( 0.1173) 196 O4     2s     (-0.1362) 226 O5     2s     (-0.1209)
               256 O6     2s     (-0.2399) 286 O7     2s     ( 0.2377) 316 O8     2s     (-0.1434) 376 O10    2s     (-0.3047)
               406 O11    2s     ( 0.2819) 436 O12    2s     (-0.2049) 466 O13    2s     (-0.1411) 496 O14    2s     ( 0.5318)
               502 O14    2py    (-0.1145) 592 N2     2py    ( 0.1918)
         54   -1.1782    2.0000                                                                                                           
               106 O1     2s     ( 0.1402) 166 O3     2s     ( 0.1478) 196 O4     2s     ( 0.1980) 256 O6     2s     (-0.1249)
               316 O8     2s     ( 0.3851) 406 O11    2s     (-0.5695) 415 O11    2pz    (-0.1133) 436 O12    2s     (-0.1784)
               496 O14    2s     ( 0.2096) 526 O15    2s     (-0.2085) 679 N5     2px    (-0.1418) 685 N5     2pz    ( 0.1683)
      
         55   -1.1577    2.0000                                                                                                           
               106 O1     2s     (-0.1272) 196 O4     2s     ( 0.1994) 256 O6     2s     ( 0.5865) 316 O8     2s     (-0.1222)
               376 O10    2s     (-0.5398) 436 O12    2s     (-0.1086) 589 N2     2px    ( 0.1483) 595 N2     2pz    ( 0.1760)
      
         56   -1.1528    2.0000                                                                                                           
                12 DY1    5px    ( 0.1308) 106 O1     2s     (-0.2678) 166 O3     2s     ( 0.1301) 196 O4     2s     ( 0.1824)
               226 O5     2s     ( 0.4534) 256 O6     2s     (-0.1362) 316 O8     2s     (-0.2386) 346 O9     2s     ( 0.3895)
               376 O10    2s     ( 0.1465) 466 O13    2s     (-0.3655) 619 N3     2px    ( 0.1074) 649 N4     2px    ( 0.1354)
               655 N4     2pz    (-0.1058)
         57   -1.1501    2.0000                                                                                                           
               196 O4     2s     (-0.5548) 226 O5     2s     ( 0.3356) 256 O6     2s     ( 0.1784) 316 O8     2s     ( 0.4054)
               376 O10    2s     (-0.1148) 406 O11    2s     ( 0.1061) 466 O13    2s     (-0.2799) 649 N4     2px    ( 0.1033)
               679 N5     2px    (-0.1313) 682 N5     2py    (-0.1147) 685 N5     2pz    (-0.1149)
         58   -1.1469    2.0000                                                                                                           
               106 O1     2s     ( 0.3896) 136 O2     2s     ( 0.1482) 166 O3     2s     (-0.1378) 196 O4     2s     ( 0.2288)
               226 O5     2s     ( 0.3465) 316 O8     2s     (-0.1894) 346 O9     2s     (-0.5182) 466 O13    2s     (-0.2495)
               619 N3     2px    (-0.1594) 649 N4     2px    ( 0.1019)
         59   -1.1425    2.0000                                                                                                           
               106 O1     2s     (-0.1518) 136 O2     2s     ( 0.5941) 166 O3     2s     (-0.5497) 316 O8     2s     ( 0.1102)
               346 O9     2s     ( 0.1602) 562 N1     2py    ( 0.1794) 565 N1     2pz    ( 0.1721)
         60   -1.0474    2.0000                                                                                                           
                19 DY1    5py    ( 0.7941)  26 DY1    5pz    (-0.5016) 286 O7     2s     (-0.1237) 496 O14    2s     ( 0.1319)
      
         61   -1.0452    2.0000                                                                                                           
                12 DY1    5px    ( 0.1180)  19 DY1    5py    ( 0.4922)  26 DY1    5pz    ( 0.7882) 526 O15    2s     ( 0.1180)
      
         62   -1.0435    2.0000                                                                                                           
                12 DY1    5px    (-0.9219)  19 DY1    5py    ( 0.1052) 136 O2     2s     (-0.1014) 196 O4     2s     ( 0.1068)
               346 O9     2s     ( 0.1031) 436 O12    2s     ( 0.1219)
         63   -0.6698    2.0000                                                                                                           
               106 O1     2s     ( 0.2093) 109 O1     2px    (-0.1217) 136 O2     2s     ( 0.1984) 166 O3     2s     ( 0.2004)
               196 O4     2s     ( 0.1985) 226 O5     2s     ( 0.2215) 256 O6     2s     ( 0.1686) 286 O7     2s     ( 0.2495)
               292 O7     2py    (-0.1196) 316 O8     2s     ( 0.2078) 319 O8     2px    (-0.1159) 346 O9     2s     ( 0.1958)
               376 O10    2s     ( 0.1721) 406 O11    2s     ( 0.2238) 436 O12    2s     ( 0.2298) 439 O12    2px    (-0.1115)
               466 O13    2s     ( 0.2337) 472 O13    2py    ( 0.1013) 496 O14    2s     ( 0.1849) 526 O15    2s     ( 0.2267)
               556 N1     2s     (-0.2473) 586 N2     2s     (-0.2034) 616 N3     2s     (-0.2443) 646 N4     2s     (-0.2696)
               676 N5     2s     (-0.2459)
         64   -0.6581    2.0000                                                                                                           
               136 O2     2s     (-0.1429) 166 O3     2s     (-0.1480) 196 O4     2s     (-0.1351) 226 O5     2s     ( 0.4057)
               229 O5     2px    ( 0.1350) 235 O5     2pz    (-0.1423) 256 O6     2s     (-0.1091) 286 O7     2s     ( 0.4377)
               292 O7     2py    (-0.2245) 316 O8     2s     (-0.1407) 376 O10    2s     (-0.1114) 406 O11    2s     (-0.1358)
               436 O12    2s     (-0.1507) 466 O13    2s     ( 0.4249) 469 O13    2px    (-0.1490) 472 O13    2py    ( 0.1675)
               496 O14    2s     (-0.1013) 556 N1     2s     ( 0.1658) 586 N2     2s     ( 0.1180) 616 N3     2s     ( 0.1042)
               646 N4     2s     (-0.4693) 676 N5     2s     ( 0.1549)
         65   -0.6557    2.0000                                                                                                           
               106 O1     2s     (-0.1349) 136 O2     2s     (-0.1599) 166 O3     2s     (-0.1575) 256 O6     2s     ( 0.4304)
               259 O6     2px    ( 0.1276) 265 O6     2pz    ( 0.1871) 346 O9     2s     (-0.1262) 376 O10    2s     ( 0.4376)
               379 O10    2px    (-0.1079) 382 O10    2py    (-0.1978) 436 O12    2s     (-0.1615) 496 O14    2s     ( 0.4406)
               502 O14    2py    ( 0.2148) 526 O15    2s     (-0.1257) 556 N1     2s     ( 0.1784) 586 N2     2s     (-0.4836)
               616 N3     2s     ( 0.1414)
         66   -0.6518    2.0000                                                                                                           
                26 DY1    5pz    ( 0.1029) 106 O1     2s     (-0.3376) 109 O1     2px    ( 0.1786) 196 O4     2s     ( 0.3441)
               205 O4     2pz    ( 0.1462) 316 O8     2s     ( 0.3525) 319 O8     2px    (-0.1745) 346 O9     2s     (-0.3237)
               355 O9     2pz    ( 0.1259) 406 O11    2s     ( 0.3558) 415 O11    2pz    (-0.1609) 526 O15    2s     (-0.3474)
               535 O15    2pz    (-0.1610) 616 N3     2s     ( 0.3706) 676 N5     2s     (-0.3892)
         67   -0.6477    2.0000                                                                                                           
                12 DY1    5px    ( 0.1091) 106 O1     2s     (-0.2185) 109 O1     2px    ( 0.1115) 136 O2     2s     ( 0.3648)
               139 O2     2px    ( 0.1005) 142 O2     2py    ( 0.1201) 145 O2     2pz    ( 0.1137) 166 O3     2s     ( 0.3693)
               169 O3     2px    ( 0.1270) 172 O3     2py    (-0.1116) 175 O3     2pz    (-0.1012) 196 O4     2s     (-0.2125)
               316 O8     2s     (-0.1960) 346 O9     2s     (-0.2307) 406 O11    2s     (-0.2125) 415 O11    2pz    ( 0.1013)
               436 O12    2s     ( 0.3956) 439 O12    2px    (-0.2234) 526 O15    2s     (-0.2398) 535 O15    2pz    (-0.1171)
               556 N1     2s     (-0.4097) 616 N3     2s     ( 0.2492) 676 N5     2s     ( 0.2264)
         68   -0.5492    2.0000                                                                                                           
               106 O1     2s     (-0.1080) 145 O2     2pz    (-0.1191) 175 O3     2pz    (-0.1090) 226 O5     2s     ( 0.1682)
               229 O5     2px    ( 0.1067) 232 O5     2py    ( 0.1558) 256 O6     2s     (-0.2088) 259 O6     2px    (-0.1236)
               262 O6     2py    ( 0.1518) 265 O6     2pz    (-0.1298) 295 O7     2pz    ( 0.1547) 346 O9     2s     ( 0.1099)
               352 O9     2py    (-0.1215) 376 O10    2s     ( 0.2065) 379 O10    2px    (-0.1068) 382 O10    2py    (-0.2126)
               442 O12    2py    ( 0.1080) 466 O13    2s     (-0.1812) 469 O13    2px    ( 0.1391) 472 O13    2py    (-0.1523)
               505 O14    2pz    ( 0.1538) 562 N1     2py    ( 0.1713) 565 N1     2pz    (-0.1121) 592 N2     2py    ( 0.1100)
               595 N2     2pz    ( 0.2247) 619 N3     2px    (-0.1480) 649 N4     2px    (-0.1056) 652 N4     2py    ( 0.1016)
               655 N4     2pz    ( 0.1980)
         69   -0.5479    2.0000                                                                                                           
               112 O1     2py    (-0.1349) 202 O4     2py    ( 0.1060) 226 O5     2s     (-0.2342) 232 O5     2py    (-0.1362)
               235 O5     2pz    ( 0.1958) 256 O6     2s     (-0.1881) 265 O6     2pz    (-0.1986) 289 O7     2px    ( 0.1910)
               322 O8     2py    ( 0.1225) 352 O9     2py    (-0.1012) 376 O10    2s     ( 0.1645) 382 O10    2py    (-0.2065)
               466 O13    2s     ( 0.2061) 472 O13    2py    ( 0.2444) 499 O14    2px    ( 0.1506) 532 O15    2py    (-0.1116)
               589 N2     2px    ( 0.2441) 622 N3     2py    (-0.1869) 649 N4     2px    ( 0.2791) 679 N5     2px    (-0.1064)
               682 N5     2py    ( 0.1385)
         70   -0.5439    2.0000                                                                                                           
               106 O1     2s     ( 0.2015) 109 O1     2px    (-0.2050) 136 O2     2s     ( 0.2537) 139 O2     2px    ( 0.2044)
               142 O2     2py    ( 0.1490) 145 O2     2pz    ( 0.1010) 166 O3     2s     (-0.2261) 169 O3     2px    (-0.2474)
               259 O6     2px    (-0.1050) 346 O9     2s     (-0.1583) 355 O9     2pz    ( 0.1885) 406 O11    2s     ( 0.1056)
               442 O12    2py    (-0.1251) 445 O12    2pz    (-0.1684) 526 O15    2s     (-0.1003) 532 O15    2py    (-0.1203)
               535 O15    2pz    (-0.1158) 562 N1     2py    (-0.1817) 565 N1     2pz    (-0.2530) 595 N2     2pz    ( 0.1395)
               619 N3     2px    ( 0.2130) 622 N3     2py    (-0.1092) 655 N4     2pz    ( 0.1146)
         71   -0.5418    2.0000                                                                                                           
               106 O1     2s     ( 0.1424) 109 O1     2px    (-0.1116) 115 O1     2pz    (-0.1574) 166 O3     2s     ( 0.1081)
               196 O4     2s     (-0.2585) 202 O4     2py    (-0.1051) 205 O4     2pz    (-0.2443) 295 O7     2pz    (-0.1082)
               316 O8     2s     ( 0.2254) 319 O8     2px    (-0.2160) 325 O8     2pz    ( 0.1586) 346 O9     2s     (-0.2187)
               352 O9     2py    ( 0.1060) 355 O9     2pz    ( 0.1650) 409 O11    2px    ( 0.1568) 412 O11    2py    ( 0.1076)
               436 O12    2s     (-0.1332) 439 O12    2px    ( 0.1285) 529 O15    2px    ( 0.1761) 559 N1     2px    (-0.1084)
               619 N3     2px    ( 0.1688) 625 N3     2pz    (-0.1400) 655 N4     2pz    (-0.1433) 679 N5     2px    ( 0.2092)
               682 N5     2py    ( 0.1712) 685 N5     2pz    ( 0.1332)
         72   -0.5339    2.0000                                                                                                           
               226 O5     2s     (-0.1909) 229 O5     2px    (-0.1768) 232 O5     2py    ( 0.1164) 235 O5     2pz    ( 0.1442)
               286 O7     2s     ( 0.3947) 292 O7     2py    (-0.3793) 295 O7     2pz    ( 0.1665) 466 O13    2s     (-0.2142)
               469 O13    2px    ( 0.2447) 475 O13    2pz    (-0.1492) 565 N1     2pz    (-0.1097) 652 N4     2py    ( 0.3580)
               682 N5     2py    ( 0.1180)
         73   -0.5329    2.0000                                                                                                           
               106 O1     2s     (-0.1055) 226 O5     2s     (-0.1605) 235 O5     2pz    ( 0.2295) 256 O6     2s     ( 0.1368)
               265 O6     2pz    ( 0.2155) 289 O7     2px    ( 0.2352) 379 O10    2px    (-0.1568) 382 O10    2py    ( 0.1402)
               466 O13    2s     ( 0.1621) 472 O13    2py    ( 0.2084) 475 O13    2pz    ( 0.1432) 499 O14    2px    (-0.2028)
               589 N2     2px    (-0.3205) 649 N4     2px    ( 0.3304) 655 N4     2pz    ( 0.1149)
         74   -0.5322    2.0000                                                                                                           
               166 O3     2s     ( 0.1104) 205 O4     2pz    (-0.1020) 226 O5     2s     ( 0.1368) 229 O5     2px    ( 0.1869)
               232 O5     2py    ( 0.1169) 256 O6     2s     ( 0.1026) 259 O6     2px    ( 0.1455) 262 O6     2py    (-0.1377)
               292 O7     2py    ( 0.1200) 295 O7     2pz    ( 0.2032) 346 O9     2s     (-0.1022) 355 O9     2pz    ( 0.1035)
               376 O10    2s     (-0.1654) 379 O10    2px    ( 0.1954) 382 O10    2py    ( 0.1128) 469 O13    2px    ( 0.1481)
               475 O13    2pz    ( 0.1800) 505 O14    2pz    (-0.2014) 589 N2     2px    ( 0.1015) 592 N2     2py    (-0.1590)
               595 N2     2pz    (-0.2278) 622 N3     2py    (-0.1406) 655 N4     2pz    ( 0.3271)
         75   -0.5313    2.0000                                                                                                           
               226 O5     2s     (-0.1267) 229 O5     2px    (-0.1340) 256 O6     2s     (-0.1474) 259 O6     2px    (-0.1873)
               262 O6     2py    (-0.1472) 286 O7     2s     ( 0.1482) 292 O7     2py    (-0.1646) 352 O9     2py    (-0.1087)
               376 O10    2s     (-0.2028) 385 O10    2pz    ( 0.2460) 475 O13    2pz    (-0.1280) 496 O14    2s     ( 0.3683)
               499 O14    2px    (-0.1038) 502 O14    2py    ( 0.3487) 505 O14    2pz    (-0.1030) 592 N2     2py    (-0.2937)
               595 N2     2pz    ( 0.1712) 622 N3     2py    (-0.1353) 652 N4     2py    ( 0.1104) 655 N4     2pz    (-0.1285)
      
         76   -0.5283    2.0000                                                                                                           
               106 O1     2s     (-0.1568) 109 O1     2px    ( 0.1681) 112 O1     2py    (-0.1183) 115 O1     2pz    (-0.1435)
               166 O3     2s     (-0.1172) 172 O3     2py    ( 0.1030) 175 O3     2pz    ( 0.1015) 199 O4     2px    (-0.1075)
               316 O8     2s     (-0.1349) 319 O8     2px    ( 0.1232) 346 O9     2s     (-0.2289) 349 O9     2px    (-0.2338)
               406 O11    2s     ( 0.1937) 415 O11    2pz    (-0.1701) 436 O12    2s     ( 0.2033) 439 O12    2px    (-0.2114)
               526 O15    2s     ( 0.3451) 529 O15    2px    ( 0.1840) 535 O15    2pz    ( 0.2970) 559 N1     2px    ( 0.1871)
               622 N3     2py    (-0.1372) 625 N3     2pz    (-0.2817) 679 N5     2px    (-0.1106) 685 N5     2pz    ( 0.1427)
      
         77   -0.5248    2.0000                                                                                                           
               112 O1     2py    ( 0.1119) 115 O1     2pz    ( 0.1043) 196 O4     2s     (-0.3199) 199 O4     2px    (-0.2043)
               202 O4     2py    (-0.1382) 205 O4     2pz    (-0.1899) 322 O8     2py    ( 0.1373) 325 O8     2pz    ( 0.2076)
               346 O9     2s     ( 0.2103) 349 O9     2px    ( 0.1360) 355 O9     2pz    (-0.1391) 406 O11    2s     ( 0.3246)
               409 O11    2px    ( 0.2486) 415 O11    2pz    (-0.2452) 526 O15    2s     (-0.1664) 529 O15    2px    (-0.1554)
[...]
   7     -0.577350269190     0.577350269190     0.577350269190     0.006101255491
   8      0.577350269190    -0.577350269190     0.577350269190     0.006101255491
   9     -0.577350269190    -0.577350269190     0.577350269190     0.006101255491
  10      0.706896546391     0.706896546391     0.024383301669     0.003242209201
  11     -0.706896546391     0.706896546391     0.024383301669     0.003242209201
  12      0.706896546391    -0.706896546391     0.024383301669     0.003242209201
  13     -0.706896546391    -0.706896546391     0.024383301669     0.003242209201
  14      0.706896546391     0.024383301669     0.706896546391     0.003242209201
  15     -0.706896546391     0.024383301669     0.706896546391     0.003242209201
  16      0.706896546391    -0.024383301669     0.706896546391     0.003242209201
  17     -0.706896546391    -0.024383301669     0.706896546391     0.003242209201
  18      0.024383301669     0.706896546391     0.706896546391     0.003242209201
  19     -0.024383301669     0.706896546391     0.706896546391     0.003242209201
  20      0.024383301669    -0.706896546391     0.706896546391     0.003242209201
  21     -0.024383301669    -0.706896546391     0.706896546391     0.003242209201
  22      0.479468262571     0.479468262571     0.734996850588     0.006011402970
  23     -0.479468262571     0.479468262571     0.734996850588     0.006011402970
  24      0.479468262571    -0.479468262571     0.734996850588     0.006011402970
  25     -0.479468262571    -0.479468262571     0.734996850588     0.006011402970
  26      0.479468262571     0.734996850588     0.479468262571     0.006011402970
  27     -0.479468262571     0.734996850588     0.479468262571     0.006011402970
  28      0.479468262571    -0.734996850588     0.479468262571     0.006011402970
  29     -0.479468262571    -0.734996850588     0.479468262571     0.006011402970
  30      0.734996850588     0.479468262571     0.479468262571     0.006011402970
  31     -0.734996850588     0.479468262571     0.479468262571     0.006011402970
  32      0.734996850588    -0.479468262571     0.479468262571     0.006011402970
  33     -0.734996850588    -0.479468262571     0.479468262571     0.006011402970
  34      0.192753315488     0.192753315488     0.962129055136     0.005981985059
  35     -0.192753315488     0.192753315488     0.962129055136     0.005981985059
  36      0.192753315488    -0.192753315488     0.962129055136     0.005981985059
  37     -0.192753315488    -0.192753315488     0.962129055136     0.005981985059
  38      0.192753315488     0.962129055136     0.192753315488     0.005981985059
  39     -0.192753315488     0.962129055136     0.192753315488     0.005981985059
  40      0.192753315488    -0.962129055136     0.192753315488     0.005981985059
  41     -0.192753315488    -0.962129055136     0.192753315488     0.005981985059
  42      0.962129055136     0.192753315488     0.192753315488     0.005981985059
  43     -0.962129055136     0.192753315488     0.192753315488     0.005981985059
  44      0.962129055136    -0.192753315488     0.192753315488     0.005981985059
  45     -0.962129055136    -0.192753315488     0.192753315488     0.005981985059
  46      0.693035796133     0.693035796133     0.198501311223     0.005964341288
  47     -0.693035796133     0.693035796133     0.198501311223     0.005964341288
  48      0.693035796133    -0.693035796133     0.198501311223     0.005964341288
  49     -0.693035796133    -0.693035796133     0.198501311223     0.005964341288
  50      0.693035796133     0.198501311223     0.693035796133     0.005964341288
  51     -0.693035796133     0.198501311223     0.693035796133     0.005964341288
  52      0.693035796133    -0.198501311223     0.693035796133     0.005964341288
  53     -0.693035796133    -0.198501311223     0.693035796133     0.005964341288
  54      0.198501311223     0.693035796133     0.693035796133     0.005964341288
  55     -0.198501311223     0.693035796133     0.693035796133     0.005964341288
  56      0.198501311223    -0.693035796133     0.693035796133     0.005964341288
  57     -0.198501311223    -0.693035796133     0.693035796133     0.005964341288
  58      0.360830211552     0.360830211552     0.860001812128     0.005443128475
  59     -0.360830211552     0.360830211552     0.860001812128     0.005443128475
  60      0.360830211552    -0.360830211552     0.860001812128     0.005443128475
  61     -0.360830211552    -0.360830211552     0.860001812128     0.005443128475
  62      0.360830211552     0.860001812128     0.360830211552     0.005443128475
  63     -0.360830211552     0.860001812128     0.360830211552     0.005443128475
  64      0.360830211552    -0.860001812128     0.360830211552     0.005443128475
  65     -0.360830211552    -0.860001812128     0.360830211552     0.005443128475
  66      0.860001812128     0.360830211552     0.360830211552     0.005443128475
  67     -0.860001812128     0.360830211552     0.360830211552     0.005443128475
  68      0.860001812128    -0.360830211552     0.360830211552     0.005443128475
  69     -0.860001812128    -0.360830211552     0.360830211552     0.005443128475
  70      0.649848616150     0.649848616150     0.394199888606     0.006067027592
  71     -0.649848616150     0.649848616150     0.394199888606     0.006067027592
  72      0.649848616150    -0.649848616150     0.394199888606     0.006067027592
  73     -0.649848616150    -0.649848616150     0.394199888606     0.006067027592
  74      0.649848616150     0.394199888606     0.649848616150     0.006067027592
  75     -0.649848616150     0.394199888606     0.649848616150     0.006067027592
  76      0.649848616150    -0.394199888606     0.649848616150     0.006067027592
  77     -0.649848616150    -0.394199888606     0.649848616150     0.006067027592
  78      0.394199888606     0.649848616150     0.649848616150     0.006067027592
  79     -0.394199888606     0.649848616150     0.649848616150     0.006067027592
  80      0.394199888606    -0.649848616150     0.649848616150     0.006067027592
  81     -0.394199888606    -0.649848616150     0.649848616150     0.006067027592
  82      0.193294501323     0.981140782843     0.000000000000     0.003007949555
  83     -0.193294501323     0.981140782843     0.000000000000     0.003007949555
  84      0.193294501323    -0.981140782843     0.000000000000     0.003007949555
  85     -0.193294501323    -0.981140782843     0.000000000000     0.003007949555
  86      0.981140782843     0.193294501323     0.000000000000     0.003007949555
  87     -0.981140782843     0.193294501323     0.000000000000     0.003007949555
  88      0.981140782843    -0.193294501323     0.000000000000     0.003007949555
  89     -0.981140782843    -0.193294501323     0.000000000000     0.003007949555
  90      0.193294501323     0.000000000000     0.981140782843     0.006015899110
  91     -0.193294501323     0.000000000000     0.981140782843     0.006015899110
  92      0.981140782843     0.000000000000     0.193294501323     0.006015899110
  93     -0.981140782843     0.000000000000     0.193294501323     0.006015899110
  94      0.000000000000     0.193294501323     0.981140782843     0.006015899110
  95      0.000000000000    -0.193294501323     0.981140782843     0.006015899110
  96      0.000000000000     0.981140782843     0.193294501323     0.006015899110
  97      0.000000000000    -0.981140782843     0.193294501323     0.006015899110
  98      0.380049491990     0.924966152699     0.000000000000     0.002881964603
  99     -0.380049491990     0.924966152699     0.000000000000     0.002881964603
 100      0.380049491990    -0.924966152699     0.000000000000     0.002881964603
 101     -0.380049491990    -0.924966152699     0.000000000000     0.002881964603
 102      0.924966152699     0.380049491990     0.000000000000     0.002881964603
 103     -0.924966152699     0.380049491990     0.000000000000     0.002881964603
 104      0.924966152699    -0.380049491990     0.000000000000     0.002881964603
 105     -0.924966152699    -0.380049491990     0.000000000000     0.002881964603
 106      0.380049491990     0.000000000000     0.924966152699     0.005763929206
 107     -0.380049491990     0.000000000000     0.924966152699     0.005763929206
 108      0.924966152699     0.000000000000     0.380049491990     0.005763929206
 109     -0.924966152699     0.000000000000     0.380049491990     0.005763929206
 110      0.000000000000     0.380049491990     0.924966152699     0.005763929206
 111      0.000000000000    -0.380049491990     0.924966152699     0.005763929206
 112      0.000000000000     0.924966152699     0.380049491990     0.005763929206
 113      0.000000000000    -0.924966152699     0.380049491990     0.005763929206
 114      0.289955882550     0.793453785658     0.535123047718     0.005916715253
 115     -0.289955882550     0.793453785658     0.535123047718     0.005916715253
 116      0.289955882550    -0.793453785658     0.535123047718     0.005916715253
 117     -0.289955882550    -0.793453785658     0.535123047718     0.005916715253
 118      0.289955882550     0.535123047718     0.793453785658     0.005916715253
 119     -0.289955882550     0.535123047718     0.793453785658     0.005916715253
 120      0.289955882550    -0.535123047718     0.793453785658     0.005916715253
 121     -0.289955882550    -0.535123047718     0.793453785658     0.005916715253
 122      0.793453785658     0.289955882550     0.535123047718     0.005916715253
 123     -0.793453785658     0.289955882550     0.535123047718     0.005916715253
 124      0.793453785658    -0.289955882550     0.535123047718     0.005916715253
 125     -0.793453785658    -0.289955882550     0.535123047718     0.005916715253
 126      0.793453785658     0.535123047718     0.289955882550     0.005916715253
 127     -0.793453785658     0.535123047718     0.289955882550     0.005916715253
 128      0.793453785658    -0.535123047718     0.289955882550     0.005916715253
 129     -0.793453785658    -0.535123047718     0.289955882550     0.005916715253
 130      0.535123047718     0.289955882550     0.793453785658     0.005916715253
 131     -0.535123047718     0.289955882550     0.793453785658     0.005916715253
 132      0.535123047718    -0.289955882550     0.793453785658     0.005916715253
 133     -0.535123047718    -0.289955882550     0.793453785658     0.005916715253
 134      0.535123047718     0.793453785658     0.289955882550     0.005916715253
 135     -0.535123047718     0.793453785658     0.289955882550     0.005916715253
 136      0.535123047718    -0.793453785658     0.289955882550     0.005916715253
 137     -0.535123047718    -0.793453785658     0.289955882550     0.005916715253
 138      0.096841214551     0.828080150669     0.552182074349     0.006072040053
 139     -0.096841214551     0.828080150669     0.552182074349     0.006072040053
 140      0.096841214551    -0.828080150669     0.552182074349     0.006072040053
 141     -0.096841214551    -0.828080150669     0.552182074349     0.006072040053
 142      0.096841214551     0.552182074349     0.828080150669     0.006072040053
 143     -0.096841214551     0.552182074349     0.828080150669     0.006072040053
 144      0.096841214551    -0.552182074349     0.828080150669     0.006072040053
 145     -0.096841214551    -0.552182074349     0.828080150669     0.006072040053
 146      0.828080150669     0.096841214551     0.552182074349     0.006072040053
 147     -0.828080150669     0.096841214551     0.552182074349     0.006072040053
 148      0.828080150669    -0.096841214551     0.552182074349     0.006072040053
 149     -0.828080150669    -0.096841214551     0.552182074349     0.006072040053
 150      0.828080150669     0.552182074349     0.096841214551     0.006072040053
 151     -0.828080150669     0.552182074349     0.096841214551     0.006072040053
 152      0.828080150669    -0.552182074349     0.096841214551     0.006072040053
 153     -0.828080150669    -0.552182074349     0.096841214551     0.006072040053
 154      0.552182074349     0.096841214551     0.828080150669     0.006072040053
 155     -0.552182074349     0.096841214551     0.828080150669     0.006072040053
 156      0.552182074349    -0.096841214551     0.828080150669     0.006072040053
 157     -0.552182074349    -0.096841214551     0.828080150669     0.006072040053
 158      0.552182074349     0.828080150669     0.096841214551     0.006072040053
 159     -0.552182074349     0.828080150669     0.096841214551     0.006072040053
 160      0.552182074349    -0.828080150669     0.096841214551     0.006072040053
 161     -0.552182074349    -0.828080150669     0.096841214551     0.006072040053
 162      0.183343464704     0.907465826531     0.378009189874     0.005664374808
 163     -0.183343464704     0.907465826531     0.378009189874     0.005664374808
 164      0.183343464704    -0.907465826531     0.378009189874     0.005664374808
 165     -0.183343464704    -0.907465826531     0.378009189874     0.005664374808
 166      0.183343464704     0.378009189874     0.907465826531     0.005664374808
 167     -0.183343464704     0.378009189874     0.907465826531     0.005664374808
 168      0.183343464704    -0.378009189874     0.907465826531     0.005664374808
 169     -0.183343464704    -0.378009189874     0.907465826531     0.005664374808
 170      0.907465826531     0.183343464704     0.378009189874     0.005664374808
 171     -0.907465826531     0.183343464704     0.378009189874     0.005664374808
 172      0.907465826531    -0.183343464704     0.378009189874     0.005664374808
 173     -0.907465826531    -0.183343464704     0.378009189874     0.005664374808
 174      0.907465826531     0.378009189874     0.183343464704     0.005664374808
 175     -0.907465826531     0.378009189874     0.183343464704     0.005664374808
 176      0.907465826531    -0.378009189874     0.183343464704     0.005664374808
 177     -0.907465826531    -0.378009189874     0.183343464704     0.005664374808
 178      0.378009189874     0.183343464704     0.907465826531     0.005664374808
 179     -0.378009189874     0.183343464704     0.907465826531     0.005664374808
 180      0.378009189874    -0.183343464704     0.907465826531     0.005664374808
 181     -0.378009189874    -0.183343464704     0.907465826531     0.005664374808
 182      0.378009189874     0.907465826531     0.183343464704     0.005664374808
 183     -0.378009189874     0.907465826531     0.183343464704     0.005664374808
 184      0.378009189874    -0.907465826531     0.183343464704     0.005664374808
 185     -0.378009189874    -0.907465826531     0.183343464704     0.005664374808
  --------------------------------------------------------------------------------
  The cut-off energy for the exact diagonalization of the Zeeman Hamiltonian is:
  E =  1161.899974000 cm(-1).
  The exact diagonalization of the Zeeman Hamiltonian included  16 exchange states.
  The magnetization vector was not calculated.
  Computation of the Zeeman splitting was not requested.

                         HIGH-FIELD POWDER MAGNETIZATION
                              (Units: Bohr magneton)

-----------|---------------|---------------|---------------|---------------|
   H(T)    |STATISTICAL SUM|     2.000 K.  |     3.000 K.  |     5.000 K.  |
-----------|---------------|---------------|---------------|---------------|
  0.000100 |     1.9999034 |  0.0006153706 |  0.0004243269 |  0.0002714804 |
  0.100000 |     1.9078747 |  0.6103809778 |  0.4228143662 |  0.2711364270 |
  0.200000 |     1.8242373 |  1.1922110380 |  0.8367464094 |  0.5402250196 |
  0.300000 |     1.7483064 |  1.7231253626 |  1.2338291342 |  0.8052974695 |
  0.400000 |     1.6793724 |  2.1902880494 |  1.6077160026 |  1.0645374253 |
  0.500000 |     1.6167909 |  2.5901706271 |  1.9540484264 |  1.3163398548 |
  0.600000 |     1.5599770 |  2.9260686318 |  2.2704753779 |  1.5593533403 |
  0.700000 |     1.5083992 |  3.2051137434 |  2.5564079811 |  1.7925036752 |
  0.800000 |     1.4615752 |  3.4358689412 |  2.8126303935 |  2.0149994041 |
  0.900000 |     1.4190670 |  3.6268062279 |  3.0408774484 |  2.2263217434 |
  1.000000 |     1.3804768 |  3.7855302291 |  3.2434534842 |  2.4262024263 |
  1.100000 |     1.3454435 |  3.9184938401 |  3.4229282792 |  2.6145934205 |
  1.200000 |     1.3136393 |  4.0309876359 |  3.5819172906 |  2.7916322912 |
  1.300000 |     1.2847665 |  4.1272573056 |  3.7229370151 |  2.9576064143 |
  1.400000 |     1.2585549 |  4.2106652262 |  3.8483197190 |  3.1129184901 |
  1.500000 |     1.2347592 |  4.2838534547 |  3.9601712223 |  3.2580550243 |
  1.600000 |     1.2131565 |  4.3488894242 |  4.0603577310 |  3.3935587400 |
  1.700000 |     1.1935447 |  4.4073883461 |  4.1505109040 |  3.5200053190 |
  1.800000 |     1.1757401 |  4.4606124352 |  4.2320433909 |  3.6379844568 |
  1.900000 |     1.1595762 |  4.5095496217 |  4.3061695752 |  3.7480849444 |
  2.000000 |     1.1449016 |  4.5549751577 |  4.3739281380 |  3.8508833325 |
  2.100000 |     1.1315791 |  4.5974994436 |  4.4362043838 |  3.9469356660 |
  2.200000 |     1.1194838 |  4.6376049828 |  4.4937511744 |  4.0367717694 |
  2.300000 |     1.1085026 |  4.6756748689 |  4.5472078994 |  4.1208915930 |
  2.400000 |     1.0985329 |  4.7120147337 |  4.5971172774 |  4.1997631828 |
  2.500000 |     1.0894813 |  4.7468696653 |  4.6439399997 |  4.2738218958 |
  2.600000 |     1.0812631 |  4.7804372704 |  4.6880673485 |  4.3434705468 |
  2.700000 |     1.0738016 |  4.8128777794 |  4.7298319806 |  4.4090802276 |
  2.800000 |     1.0670269 |  4.8443218863 |  4.7695170870 |  4.4709915936 |
  2.900000 |     1.0608757 |  4.8748768483 |  4.8073641400 |  4.5295164562 |
  3.000000 |     1.0552905 |  4.9046312475 |  4.8435794268 |  4.5849395573 |
  3.100000 |     1.0502193 |  4.9336587216 |  4.8783395457 |  4.6375204324 |
  3.200000 |     1.0456145 |  4.9620208962 |  4.9117960261 |  4.6874952925 |
  3.300000 |     1.0414332 |  4.9897696993 |  4.9440792078 |  4.7350788771 |
  3.400000 |     1.0376363 |  5.0169491948 |  4.9753014982 |  4.7804662421 |
  3.500000 |     1.0341886 |  5.0435970402 |  5.0055601064 |  4.8238344615 |
  3.600000 |     1.0310576 |  5.0697456502 |  5.0349393418 |  4.8653442278 |
  3.700000 |     1.0282144 |  5.0954231293 |  5.0635125450 |  4.9051413437 |
  3.800000 |     1.0256324 |  5.1206540213 |  5.0913437136 |  4.9433581043 |
  3.900000 |     1.0232875 |  5.1454599157 |  5.1184888717 |  4.9801145685 |
  4.000000 |     1.0211579 |  5.1698599379 |  5.1449972250 |  5.0155197238 |
  4.100000 |     1.0192238 |  5.1938711488 |  5.1709121364 |  5.0496725498 |
  4.200000 |     1.0174672 |  5.2175088708 |  5.1962719520 |  5.0826629855 |
  4.300000 |     1.0158717 |  5.2407869556 |  5.2211106997 |  5.1145728070 |
  4.400000 |     1.0144225 |  5.2637180032 |  5.2454586838 |  5.1454764224 |
  4.500000 |     1.0131063 |  5.2863135446 |  5.2693429888 |  5.1754415907 |
  4.600000 |     1.0119106 |  5.3085841915 |  5.2927879096 |  5.2045300696 |
  4.700000 |     1.0108245 |  5.3305397621 |  5.3158153180 |  5.2327982009 |
  4.800000 |     1.0098379 |  5.3521893852 |  5.3384449758 |  5.2602974373 |
  4.900000 |     1.0089416 |  5.3735415881 |  5.3606948038 |  5.2870748162 |
  5.000000 |     1.0081273 |  5.3946043702 |  5.3825811111 |  5.3131733871 |
-----------|---------------|---------------|---------------|---------------|
file  "lineOUT" has a size=0. gnuplot was not found on the system.
plots will not be created.
--- Stop Module: single_aniso at Wed Jan 29 06:51:42 2025 /rc=_RC_ALL_IS_WELL_ ---
*** files: xmldump
    saved to directory /media/korden/5fb66ce1-8053-4a4f-9303-c4fa91c2cea8/home/korden/calc/orca/Artem/PyH2DyNO34
--- Module single_aniso spent 25 seconds ---

>>> COPY py2dynh34_sa.aniso /media/korden/5fb66ce1-8053-4a4f-9303-c4fa91c2cea8/home/korden/calc/orca/Artem/PyH2DyNO34/(PyH)2Dy(NO3)4.aniso

    Timing: Wall=20271.62 User=19990.43 System=233.17