   This run of MOLCAS is using the pymolcas driver

                             OPE
                             OPE          NMOL  CASOP  ENMOLC A   SO
                 OPE        NMOLC        AS  OP EN  MO LC     AS  OP
                OPENM       OL CA        SO  PE NM  OL CA     SOP EN
                OP EN      MO   LC       AS  OP ENMOL  CASO   PENMOL
                OP  EN     MO   LC       AS  OP EN     MO     LC ASO
               OP   E  NMOL  C  AS       OP  EN MO     LC     AS  OP
               OP  E   NMO   LC AS        OPEN  MO     LCASOP EN   M
               O  PEN   MO  LCA  SO
            OPE   NMO   L   CAS    OP
        OPENMOL  CASOP     ENMOL   CASOPE
     OPENMOLCA   SOPENMOLCASOPEN   MOLCASOPE
    OPENMOLCAS   OP           EN   MOL    CAS
    OPENMOLCAS       OP  ENM        O     LCA
    OPENMOLCAS    OPEN  MOLCASO     P  E  NMO
    OPENMOLCAS     OP               E  N  MOL
    OPENMOLCA   SO           PENM   O  L  CAS    OPEN    MO    LCAS
    OPENMOLCA   SOP           ENM   O  L  CAS   OP  EN  MOLC  AS   O
    OPENMOLCA   SOPE           NM      O  LCA   S      OP  EN MO
    OPENMOLC                AS         O  PEN   M      OL  CA  SOPE
    OPENMO        LCASOPE  NMOL        C  ASO   P      ENMOLC     AS
    OPE     NMO      LCA  SO     P     E   NM   OL  CA SO  PE N   MO
          OPENMOLCA            SOPE   NMO        LCAS  O    P  ENMO
     OPENMOLCASOPENMOLCASOPENMOLCASOPENMOLCA
        OPENMOLCASOPENMOLCASOPENMOLCASOPE
            OPENMOLCASOPENMOLCASOPENM
               OPENMOLCASOPENMOLCA        version: v19.11 ?
                   OPENMOLCASO
                       OPE                tag:

 OpenMolcas is free software; you can redistribute it and/or modify it
 under the terms of the GNU Lesser General Public License version 2.1.
 OpenMolcas is distributed in the hope that it will be useful, but it
 is provided "as is" and without any express or implied warranties.
 For more details see the full text of the license in the file
 LICENSE or in <http://www.gnu.org/licenses/>.

                 Copyright (C) The OpenMolcas Authors
           For the author list and the recommended citation,
                   consult the file CONTRIBUTORS.md

           *************************************************
           * pymolcas version py2.06                       *
           *   build 99e611e35fc7aec87fd6f34cfa558dd4      *
           *   (after the EMIL interpreter by V. Veryazov) *
           *************************************************


   --------------------------------------------------------------------------------------------------------------------------------
  |
  |              Project: 801063
  |       Submitted from: /media/korden/5fb66ce1-8053-4a4f-9303-c4fa91c2cea8/home/korden/calc/orca/Artem/Dyacac4_3567_place/f801063
  |         Scratch area: /tmp/801063
  |      Save outputs to: /media/korden/5fb66ce1-8053-4a4f-9303-c4fa91c2cea8/home/korden/calc/orca/Artem/Dyacac4_3567_place/f801063
  |               Molcas: /usr/share/openmolcas
  |
  | Scratch area is empty
  |
  |        MOLCAS_COLOR = YES
  |       MOLCAS_DRIVER = /usr/bin/pymolcas
  | MOLCAS_KEEP_WORKDIR = YES
  |      MOLCAS_MAXITER = 100
  |       MOLCAS_MOLDEN = YES
  |  MOLCAS_NEW_WORKDIR = NO
  |       MOLCAS_NPROCS = 1
  |        MOLCAS_PRINT = NORMAL
  |         MOLCAS_SAVE = ORIG
  |       MOLCAS_SOURCE = /home/korden/build
  |    MOLCAS_STRUCTURE = 0
  |         MOLCAS_TRAP = YES
  |
   --------------------------------------------------------------------------------------------------------------------------------

++ ---------   Input file   ---------

&GATEWAY
Douglas-Kroll

AMFI
ANGM
 4.763284 17.792245 4.951665  Angstrom

Basis Set
Dy.ANO-RCC-VTZP.
 Dy1    4.763284 17.792245 4.951665    Angstrom
End of Basis Set

Basis Set
O.ANO-RCC-VTZP.
 O1    5.329409 20.040745 5.054366    Angstrom
 O2    3.478006 18.722894 6.628241    Angstrom
 O3    5.748261 18.186171 2.889871    Angstrom
 O4    3.095004 18.670777 3.574543    Angstrom
 O5    5.756909 15.768185 4.359518    Angstrom
 O6    3.112826 16.159905 5.054366    Angstrom
End of Basis Set

Basis Set
N.ANO-RCC-VTZP.
 N1    7.219023 17.883135 5.661995    Angstrom
 N2    5.358709 16.651025 7.198511    Angstrom
End of Basis Set

Basis Set
C.ANO-RCC-VDZP.
 C1    8.126303 18.512114 4.942435    Angstrom
 C2    9.500844 18.423851 5.186649    Angstrom
 C3    9.930087 17.669412 6.205663    Angstrom
 C4    9.018133 17.009541 7.024072    Angstrom
 C5    9.388567 16.227783 8.166646    Angstrom
 C6    8.476922 15.647769 8.950168    Angstrom
 C7    7.073564 15.759149 8.660890    Angstrom
 C8    6.067826 15.223266 9.474938    Angstrom
 C9    4.777857 15.408198 9.175484    Angstrom
 C10    4.448207 16.118505 8.014012    Angstrom
 C11    6.655021 16.492572 7.532852    Angstrom
 C12    7.652759 17.137522 6.710082    Angstrom
 C13    5.419869 22.385178 5.166298    Angstrom
 C14    4.848811 21.059131 5.602395    Angstrom
 C15    3.872940 21.031812 6.585067    Angstrom
 C16    3.282142 19.894900 7.077857    Angstrom
 C17    2.342653 19.962149 8.271310    Angstrom
 C18    6.678160 19.403150 1.087336    Angstrom
 C19    5.503987 19.041692 1.985696    Angstrom
 C20    4.277926 19.646923 1.792359    Angstrom
 C21    3.155685 19.419961 2.565705    Angstrom
 C22    1.827776 20.134472 2.205198    Angstrom
 C23    6.620230 13.581995 4.449645    Angstrom
 C24    5.482210 14.548685 4.561576    Angstrom
 C25    4.194006 14.098964 4.869752    Angstrom
 C26    3.095551 14.889128 5.047098    Angstrom
 C27    1.747065 14.243967 5.241888    Angstrom
End of Basis Set

Basis Set
H.ANO-RCC-MB.
 H1    7.837531 19.041692 4.235957    Angstrom
 H2    10.107253 18.879876 4.647342    Angstrom
 H3    10.842646 17.589555 6.368472    Angstrom
 H4    10.290818 16.120607 8.367251    Angstrom
 H5    8.753485 15.162323 9.694440    Angstrom
 H6    6.300582 14.735718 10.230840    Angstrom
 H7    4.110989 15.071958 9.729328    Angstrom
 H8    3.548909 16.223580 7.801778    Angstrom
 H9    6.070969 22.679388 5.807361    Angstrom
 H10    4.714233 23.032440 5.106698    Angstrom
 H11    5.838129 22.286407 4.307186    Angstrom
 H12    3.596907 21.847194 6.938306    Angstrom
 H13    1.557560 19.440977 8.091056    Angstrom
 H14    2.089491 20.876301 8.428305    Angstrom
 H15    2.786851 19.615401 9.049016    Angstrom
 H16    7.126329 20.174400 1.442028    Angstrom
 H17    6.356498 19.596488 0.204966    Angstrom
 H18    7.291058 18.665523 1.050994    Angstrom
 H19    4.201699 20.250054 1.090243    Angstrom
 H20    1.194306 19.491412 1.881032    Angstrom
 H21    1.992445 20.792241 1.524886    Angstrom
 H22    1.472664 20.565279 2.987266    Angstrom
 H23    6.847635 13.462209 3.523665    Angstrom
 H24    6.363218 12.737191 4.827596    Angstrom
 H25    7.380404 13.926640 4.923537    Angstrom
 H26    4.076098 13.180608 4.961332    Angstrom
 H27    1.482433 14.328027 6.160599    Angstrom
 H28    1.800198 13.315104 5.007849    Angstrom
 H29    1.099997 14.678978 4.682230    Angstrom
End of Basis Set

&SEWARD
HIGH Cholesky

&RASSCF
SYMM
1
CIMX
200
charge
0
Spin
6
ciroot
21 21 1
Nactel
9 0 0
Ras2
7
ORBL
nocore
ORBA
compact

>>> COPY $Project.JobIph JOB001

&RASSI
spinorbit
nrofjobiphs=1 21
1 2 3 4 5 6 7 8 9 10 11 12 13 14 15 16 17 18 19 20 21
mees
PROP
3
'ANGMOM' 1
'ANGMOM' 2
'ANGMOM' 3

&SINGLE_ANISO
MLTP
8
2 2 2 2  2 2 2 2
CRYS
Dy
XFIE
0.5
TINT
0 300 301
HINT
0 5 51
TMAG
3 2.0 4.0 6.0
UBAR

>>> COPY $Project.aniso $CurrDir/801063.aniso

-- ----------------------------------

--- Start Module: gateway at Sat Nov 23 14:35:35 2024 ---

()()()()()()()()()()()()()()()()()()()()()()()()()()()()()()()()()()()()()()()()()()()()()()()()()()

                                              &GATEWAY

                                   only a single process is used
                       available to each process: 32 GB of memory, 1 thread?
                                            pid: 425632
()()()()()()()()()()()()()()()()()()()()()()()()()()()()()()()()()()()()()()()()()()()()()()()()()()


++    Symmetry information:
      ---------------------

                    Character Table for C1 

                             E  
                    a        1  x, y, xy, Rz, z, xz, Ry, yz, Rx, I
--


++    Basis set information:
      ----------------------


      Basis set label: DY.ANO-RCC...8S7P5D3F2G1H.

      Electronic valence basis set:
      ------------------
      Associated Effective Charge  66.000000 au
      Associated Actual Charge     66.000000 au
      Nuclear Model: Point charge

      Shell  nPrim  nBasis  Cartesian Spherical Contaminant
         s      25       8        X                  
         p      22       7        X                  
         d      15       5                 X         
         f      11       3                 X         
         g       4       2                 X         
         h       2       1                 X         


      Basis set label: O.ANO-RCC...4S3P2D1F.

      Electronic valence basis set:
      ------------------
      Associated Effective Charge   8.000000 au
      Associated Actual Charge      8.000000 au
      Nuclear Model: Point charge

      Shell  nPrim  nBasis  Cartesian Spherical Contaminant
         s      14       4        X                  
         p       9       3        X                  
         d       4       2                 X         
         f       3       1                 X         


      Basis set label: N.ANO-RCC...4S3P2D1F.

      Electronic valence basis set:
      ------------------
      Associated Effective Charge   7.000000 au
      Associated Actual Charge      7.000000 au
      Nuclear Model: Point charge

      Shell  nPrim  nBasis  Cartesian Spherical Contaminant
         s      14       4        X                  
         p       9       3        X                  
         d       4       2                 X         
         f       3       1                 X         


      Basis set label: C.ANO-RCC...3S2P1D.

      Electronic valence basis set:
      ------------------
      Associated Effective Charge   6.000000 au
      Associated Actual Charge      6.000000 au
      Nuclear Model: Point charge

      Shell  nPrim  nBasis  Cartesian Spherical Contaminant
         s      14       3        X                  
         p       9       2        X                  
         d       4       1                 X         


      Basis set label: H.ANO-RCC...1S.

      Electronic valence basis set:
      ------------------
      Associated Effective Charge   1.000000 au
      Associated Actual Charge      1.000000 au
      Nuclear Model: Point charge

      Shell  nPrim  nBasis  Cartesian Spherical Contaminant
         s       8       1        X                  
--


++    Molecular structure info:
      -------------------------

                    ************************************************ 
                    **** Cartesian Coordinates / Bohr, Angstrom **** 
                    ************************************************ 

     Center  Label                x              y              z                     x              y              z
        1      DY1              9.001302      33.622470       9.357291              4.763284      17.792245       4.951665
        2      O1              10.071123      37.871519       9.551367              5.329409      20.040745       5.054366
        3      O2               6.572479      35.381142      12.525560              3.478006      18.722894       6.628241
        4      O3              10.862639      34.366882       5.461065              5.748261      18.186171       2.889871
        5      O4               5.848710      35.282655       6.754907              3.095004      18.670777       3.574543
        6      O5              10.878981      29.797551       8.238295              5.756909      15.768185       4.359518
        7      O6               5.882389      30.537795       9.551367              3.112826      16.159905       5.054366
        8      N1              13.641976      33.794227      10.699620              7.219023      17.883135       5.661995
        9      N2              10.126492      31.465877      13.603214              5.358709      16.651025       7.198511
       10      C1              15.356487      34.982825       9.339849              8.126303      18.512114       4.942435
       11      C2              17.953993      34.816033       9.801346              9.500844      18.423851       5.186649
       12      C3              18.765145      33.390349      11.727003              9.930087      17.669412       6.205663
       13      C4              17.041802      32.143374      13.273572              9.018133      17.009541       7.024072
       14      C5              17.741820      30.666065      15.432724              9.388567      16.227783       8.166646
       15      C6              16.019061      29.569998      16.913366              8.476922      15.647769       8.950168
       16      C7              13.367099      29.780476      16.366710              7.073564      15.759149       8.660890
       17      C8              11.466529      28.767803      17.905038              6.067826      15.223266       9.474938
       18      C9               9.028841      29.117274      17.339152              4.777857      15.408198       9.175484
       19      C10              8.405893      30.459560      15.144288              4.448207      16.118505       8.014012
       20      C11             12.576167      31.166444      14.235027              6.655021      16.492572       7.532852
       21      C12             14.461619      32.385223      12.680217              7.652759      17.137522       6.710082
       22      C13             10.242068      42.301856       9.762888              5.419869      22.385178       5.166298
       23      C14              9.162925      39.795990      10.586992              4.848811      21.059131       5.602395
       24      C15              7.318796      39.744365      12.443973              3.872940      21.031812       6.585067
       25      C16              6.202349      37.595912      13.375211              3.282142      19.894900       7.077857
       26      C17              4.426973      37.722994      15.630511              2.342653      19.962149       8.271310
       27      C18             12.619893      36.666639       2.054767              6.678160      19.403150       1.087336
       28      C19             10.401028      35.983583       3.752422              5.503987      19.041692       1.985696
       29      C20              8.084109      37.127304       3.387068              4.277926      19.646923       1.792359
       30      C21              5.963380      36.698408       4.848480              3.155685      19.419961       2.565705
       31      C22              3.453996      38.048638       4.167220              1.827776      20.134472       2.205198
       32      C23             12.510422      25.666251       8.408610              6.620230      13.581995       4.449645
       33      C24             10.359875      27.493030       8.620129              5.482210      14.548685       4.561576
       34      C25              7.925523      26.643181       9.202498              4.194006      14.098964       4.869752
       35      C26              5.849744      28.136374       9.537633              3.095551      14.889128       5.047098
       36      C27              3.301474      26.917197       9.905733              1.747065      14.243967       5.241888
       37      H1              14.810787      35.983583       8.004799              7.837531      19.041692       4.235957
       38      H2              19.099940      35.677795       8.782204             10.107253      18.879876       4.647342
       39      H3              20.489631      33.239442      12.034668             10.842646      17.589555       6.368472
       40      H4              19.446828      30.463532      15.811813             10.290818      16.120607       8.367251
       41      H5              16.541689      28.652638      18.319837              8.753485      15.162323       9.694440
       42      H6              11.906374      27.846471      19.333486              6.300582      14.735718      10.230840
       43      H7               7.768643      28.481873      18.385765              4.110989      15.071958       9.729328
       44      H8               6.706466      30.658123      14.743224              3.548909      16.223580       7.801778
       45      H9              11.472469      42.857832      10.974322              6.070969      22.679388       5.807361
       46      H10              8.908609      43.525004       9.650261              4.714233      23.032440       5.106698
       47      H11             11.032465      42.115206       8.139402              5.838129      22.286407       4.307186
       48      H12              6.797169      41.285213      13.111498              3.596907      21.847194       6.938306
       49      H13              2.943362      36.738122      15.289880              1.557560      19.440977       8.091056
       50      H14              3.948566      39.450491      15.927188              2.089491      20.876301       8.428305
       51      H15              5.266385      37.067736      17.100162              2.786851      19.615401       9.049016
       52      H16             13.466810      38.124091       2.725038              7.126329      20.174400       1.442028
       53      H17             12.012040      37.031995       0.387330              6.356498      19.596488       0.204966
       54      H18             13.778103      35.272726       1.986091              7.291058      18.665523       1.050994
       55      H19              7.940060      38.267056       2.060261              4.201699      20.250054       1.090243
       56      H20              2.256911      36.833430       3.554635              1.194306      19.491412       1.881032
       57      H21              3.765175      39.291641       2.881617              1.992445      20.792241       1.524886
       58      H22              2.782932      38.862745       5.645115              1.472664      20.565279       2.987266
       59      H23             12.940155      25.439888       6.658762              6.847635      13.462209       3.523665
       60      H24             12.024739      24.069803       9.122834              6.363218      12.737191       4.827596
       61      H25             13.946942      26.317535       9.304136              7.380404      13.926640       4.923537
       62      H26              7.702709      24.907739       9.375559              4.076098      13.180608       4.961332
       63      H27              2.801392      27.076047      11.641845              1.482433      14.328027       6.160599
       64      H28              3.401881      25.161900       9.463463              1.800198      13.315104       5.007849
       65      H29              2.078693      27.739248       8.848132              1.099997      14.678978       4.682230

                    ************************************************* 
                    **** InterNuclear Distances / Bohr, Angstrom **** 
                    ************************************************* 

     Atom centers         Bohr        Angstrom
   55 H19      29 C20     1.755050        0.928733
   37 H1       10 C1      1.755466        0.928953
   42 H6       17 C8      1.755785        0.929121
   43 H7       18 C9      1.757053        0.929792
   44 H8       19 C10     1.757365        0.929957
   39 H3       12 C3      1.758205        0.930402
   62 H26      34 C25   
   40 H4       14 C5      1.758345        0.930476
   48 H12      24 C15     1.758380        0.930494
   41 H5       15 C6      1.758650        0.930637
   38 H2       11 C2      1.759113        0.930883
   53 H17      27 C18     1.811993        0.958865
   56 H20      31 C22     1.812457        0.959111
   64 H28      36 C27     1.812940        0.959366
   46 H10      22 C13     1.812978        0.959386
   49 H13      26 C17     1.813037        0.959418
   54 H18      27 C18     1.813604        0.959718
   63 H27      36 C27     1.813671        0.959753
   65 H29      36 C27   
   61 H25      32 C23     1.813761        0.959801
   45 H9       22 C13     1.813992        0.959923
   52 H16      27 C18     1.814027        0.959942
   51 H15      26 C17     1.814897        0.960402
   57 H21      31 C22     1.815117        0.960519
   60 H24      32 C23   
   47 H11      22 C13     1.815289        0.960609
   58 H22      31 C22     1.815839        0.960900
   59 H23      32 C23     1.816007        0.960989
   50 H14      26 C17     1.816903        0.961464
   23 C14       2 O1      2.366628        1.252366
   30 C21       5 O4      2.377387        1.258059
   33 C24       6 O5      2.392924        1.266281
   28 C19       4 O3      2.397137        1.268510
   25 C16       3 O2      2.400856        1.270478
   35 C26       7 O6      2.401682        1.270915
   10 C1        8 N1      2.490239        1.317778
   19 C10       9 N2      2.519532        1.333279
   15 C6       14 C5      2.522214        1.334698
   18 C9       17 C8      2.526792        1.337121
   12 C3       11 C2      2.529564        1.338588
   20 C11       9 N2      2.547499        1.348079
   21 C12       8 N1      2.565126        1.357406
   35 C26      34 C25     2.578915        1.364703
   25 C16      24 C15     2.594129        1.372754
   29 C20      28 C19     2.609540        1.380909
   30 C21      29 C20     2.610970        1.381666
   24 C15      23 C14     2.617605        1.385177
   13 C4       12 C3      2.629969        1.391719
   34 C25      33 C24     2.643382        1.398818
   11 C2       10 C1      2.643452        1.398854
   17 C8       16 C7      2.646530        1.400483
   19 C10      18 C9      2.647116        1.400793
   21 C12      13 C4      2.658553        1.406846
   20 C11      16 C7      2.662809        1.409098
   14 C5       13 C4      2.708210        1.433123
   16 C7       15 C6      2.715886        1.437185
   21 C12      20 C11     2.730894        1.445127
   33 C24      32 C23     2.829613        1.497367
   36 C27      35 C26     2.848784        1.507511
   23 C14      22 C13     2.850098        1.508207
   26 C17      25 C16     2.873062        1.520359
   28 C19      27 C18     2.876102        1.521967
   31 C22      30 C21     2.929888        1.550430
   58 H22      56 H20     2.960561        1.566661
   65 H29      63 H27     2.960905        1.566844
   64 H28      63 H27     2.961401        1.567106
   54 H18      53 H17     2.961425        1.567119
   57 H21      56 H20     2.961522        1.567170
   46 H10      45 H9      2.961694        1.567261
   65 H29      64 H28     2.961787        1.567310
   54 H18      52 H16     2.961963        1.567403
   50 H14      49 H13     2.962017        1.567432
   53 H17      52 H16     2.962078        1.567464
   61 H25      60 H24     2.963113        1.568012
   47 H11      46 H10     2.963273        1.568097
   47 H11      45 H9      2.963422        1.568175
   61 H25      59 H23   
   51 H15      49 H13     2.963478        1.568205
   58 H22      57 H21     2.964064        1.568515
   60 H24      59 H23     2.964249        1.568613
   51 H15      50 H14     2.964800        1.568905
   37 H1        8 N1      3.663531        1.938657
   44 H8        9 N2      3.694410        1.954998
   40 H4       15 C6      3.709637        1.963055
   41 H5       14 C5      3.718820        1.967915
   42 H6       18 C9      3.724581        1.970963
   62 H26      35 C26     3.726101        1.971768
   39 H3       11 C2      3.728649        1.973116
   43 H7       17 C8      3.739949        1.979096
   38 H2       12 C3      3.743840        1.981155
   48 H12      25 C16     3.746238        1.982424
   55 H19      28 C19     3.759524        1.989454
   55 H19      30 C21     3.760597        1.990022
   48 H12      23 C14     3.766658        1.993230
   62 H26      33 C24     3.783508        2.002146
   37 H1       11 C2      3.804011        2.012996
   44 H8       18 C9      3.808738        2.015497
   39 H3       13 C4      3.824105        2.023629
   42 H6       16 C7      3.830907        2.027228
   61 H25      33 C24     3.836235        2.030048
   59 H23      33 C24     3.836691        2.030289
   60 H24      33 C24     3.839658        2.031859
   38 H2       10 C1      3.848037        2.036294
   43 H7       19 C10     3.850261        2.037470
   63 H27      35 C26     3.852849        2.038840
   64 H28      35 C26     3.852925        2.038880
   46 H10      23 C14     3.853269        2.039062
   65 H29      35 C26     3.854081        2.039492
   45 H9       23 C14     3.854724        2.039832
   47 H11      23 C14     3.855469        2.040226
   53 H17      28 C19     3.875355        2.050749
   49 H13      25 C16     3.875921        2.051049
   54 H18      28 C19     3.876838        2.051534
   51 H15      25 C16     3.876888        2.051561
   50 H14      25 C16     3.877060        2.051652
   52 H16      28 C19     3.877668        2.051974
   40 H4       13 C4      3.879263        2.052818
   41 H5       16 C7      3.894194        2.060719
   57 H21      30 C21     3.927533        2.078361
   56 H20      30 C21     3.928127        2.078675
   58 H22      30 C21     3.928643        2.078948
   41 H5       40 H4      4.243742        2.245692
   43 H7       42 H6      4.292170        2.271319
   39 H3       38 H2      4.295967        2.273328
   64 H28      62 H26     4.309228        2.280345
   21 C12      10 C1      4.325089        2.288738
   20 C11      19 C10     4.326387        2.289425
    3 O2        1 DY1     4.362344        2.308453
   38 H2       37 H1      4.369748        2.312371
   44 H8       43 H7      4.374059        2.314652
   57 H21      55 H19     4.376536        2.315963
    4 O3        1 DY1     4.381701        2.318696
    2 O1        1 DY1     4.385955        2.320947
    7 O6        1 DY1     4.390958        2.323595
    6 O5        1 DY1     4.405433        2.331255
   50 H14      48 H12     4.405548        2.331316
   62 H26      60 H24     4.409757        2.333543
   24 C15       2 O1      4.410218        2.333787
   34 C25       7 O6      4.411817        2.334633
    5 O4        1 DY1     4.412193        2.334832
   24 C15       3 O2      4.427342        2.342849
   34 C25       6 O5      4.427489        2.342926
   29 C20       4 O3      4.431887        2.345254
   22 C13       2 O1      4.438676        2.348846
   26 C17       3 O2      4.441642        2.350416
   29 C20       5 O4      4.443206        2.351243
   32 C23       6 O5      4.445025        2.352206
   19 C10      17 C8      4.455477        2.357737
   12 C3       10 C1      4.455719        2.357865
   36 C27       7 O6      4.460429        2.360357
   27 C18       4 O3      4.469864        2.365350
   13 C4       11 C2      4.475662        2.368418
   31 C22       5 O4      4.481232        2.371366
   18 C9       16 C7      4.495104        2.378706
   21 C12      12 C3      4.520977        2.392398
   11 C2        8 N1      4.521556        2.392704
   20 C11      17 C8      4.522582        2.393248
   21 C12       9 N2      4.526637        2.395393
   20 C11       8 N1      4.532141        2.398306
   18 C9        9 N2      4.547307        2.406331
   16 C7       14 C5      4.560130        2.413117
   55 H19      53 H17     4.572209        2.419509
   13 C4        8 N1      4.572675        2.419756
   15 C6       13 C4      4.573441        2.420161
   47 H11       2 O1      4.574571        2.420759
   16 C7        9 N2      4.580286        2.423783
   21 C12      14 C5      4.614274        2.441768
   25 C16      23 C14     4.623799        2.446809
   54 H18       4 O3      4.625573        2.447748
   30 C21      28 C19     4.626558        2.448269
   48 H12      46 H10     4.631955        2.451125
   21 C12      16 C7      4.644665        2.457851
   20 C11      15 C6      4.644961        2.458007
   35 C26      33 C24     4.647257        2.459222
   20 C11      13 C4      4.671261        2.471925
   36 C27      34 C25     4.685237        2.479321
   14 C5       12 C3      4.711824        2.493390
   24 C15      22 C13     4.719586        2.497498
   17 C8       15 C6      4.727840        2.501865
   29 C20      27 C18     4.749798        2.513485
   26 C17      24 C15     4.754219        2.515824
   34 C25      32 C23     4.754571        2.516011
   49 H13       3 O2      4.759553        2.518647
   61 H25       6 O5      4.760138        2.518956
   64 H28      34 C25     4.767140        2.522662
   65 H29       7 O6      4.774359        2.526482
   31 C22      29 C20     4.784918        2.532069
   40 H4       39 H3      4.802076        2.541149
   42 H6       41 H5      4.812851        2.546851
    8 N1        1 DY1     4.833964        2.558023
   60 H24      34 C25     4.840681        2.561578
   58 H22       5 O4      4.842280        2.562424
   50 H14      24 C15     4.855677        2.569514
   57 H21      29 C20     4.857265        2.570354
   62 H26      36 C27     4.867224        2.575624
    9 N2        1 DY1     4.893344        2.589446
   48 H12      22 C13     4.910609        2.598582
   53 H17      29 C20     4.943294        2.615879
   55 H19      27 C18     4.945928        2.617272
   55 H19      31 C22     4.961024        2.625261
   62 H26      32 C23     4.962301        2.625937
   46 H10      24 C15     4.962415        2.625997
   48 H12      26 C17     4.965144        2.627441
   37 H1        4 O3      4.967109        2.628481
   51 H15       3 O2      5.047520        2.671033
   56 H20       5 O4      5.054470        2.674710
   40 H4       12 C3      5.071155        2.683540
   39 H3       14 C5      5.071441        2.683691
   59 H23       6 O5      5.072730        2.684373
   42 H6       15 C6      5.073629        2.684849
   63 H27       7 O6      5.083929        2.690299
   41 H5       17 C8      5.093385        2.695303
    9 N2        8 N1      5.119639        2.709196
   13 C4       10 C1      5.135850        2.717775
   21 C12      11 C2      5.137452        2.718623
   20 C11      18 C9      5.139865        2.719899
   19 C10      16 C7      5.154516        2.727652
    7 O6        6 O5      5.219009        2.761781
   44 H8        3 O2      5.219472        2.762026
    3 O2        2 O1      5.223822        2.764328
   12 C3        8 N1      5.240753        2.773287
   17 C8        9 N2      5.251760        2.779112
   44 H8        7 O6      5.258227        2.782534
    5 O4        4 O3      5.258531        2.782695
   21 C12      15 C6      5.317017        2.813644
   20 C11      14 C5      5.326240        2.818525
   52 H16       4 O3      5.327679        2.819286
   37 H1        2 O1      5.331097        2.821095
    6 O5        4 O3      5.347155        2.829592
   16 C7       13 C4      5.352965        2.832667
   45 H9        2 O1      5.371395        2.842420
   48 H12      45 H9      5.375786        2.844744
   45 H9       24 C15     5.395049        2.854937
    9 N2        3 O2      5.396448        2.855677
    4 O3        2 O1      5.444222        2.880958
   25 C16       2 O1      5.446573        2.882202
    8 N1        6 O5      5.446621        2.882228
   35 C26       6 O5      5.453533        2.885885
   30 C21       4 O3      5.460220        2.889424
   23 C14       3 O2      5.473513        2.896458
   33 C24       7 O6      5.494150        2.907379
   28 C19       5 O4      5.498165        2.909504
    7 O6        5 O4      5.507724        2.914562
   52 H16      29 C20     5.514104        2.917938
    8 N1        2 O1      5.540197        2.931746
   55 H19      52 H16     5.568423        2.946682
    9 N2        6 O5      5.668501        2.999642
--


            Nuclear Potential Energy           6390.63886599 au

--- Stop Module: gateway at Sat Nov 23 14:35:35 2024 /rc=_RC_ALL_IS_WELL_ ---
*** files: xmldump
    saved to directory /media/korden/5fb66ce1-8053-4a4f-9303-c4fa91c2cea8/home/korden/calc/orca/Artem/Dyacac4_3567_place/f801063

--- Start Module: seward at Sat Nov 23 14:35:35 2024 ---

()()()()()()()()()()()()()()()()()()()()()()()()()()()()()()()()()()()()()()()()()()()()()()()()()()

                                              &SEWARD

                                   only a single process is used
                       available to each process: 32 GB of memory, 1 thread?
                                            pid: 425635
()()()()()()()()()()()()()()()()()()()()()()()()()()()()()()()()()()()()()()()()()()()()()()()()()()

               SEWARD will generate:
                  Multipole Moment integrals up to order  2
                  Kinetic Energy integrals
                  Nuclear Attraction integrals (point charge)
                  One-Electron Hamiltonian integrals
                  Velocity integrals
                  Relativistic Douglas-Kroll integrals
                  Orbital angular momentum around ( 9.0013 33.6225  9.3573 )
                  Velocity quadrupole around ( 9.9360 33.3595 10.2147 )
                  Atomic mean-field integrals
                  Cholesky decomposed two-electron repulsion integrals
                   - CD Threshold:   0.10E-07

                   Integrals are discarded if absolute value <: 0.10E-39
                   Integral cutoff threshold is set to       <: 0.10E-39

            Nuclear Potential Energy           6390.63886599 au


      Basis set specifications :
      Symmetry species         a  
      Basis functions          751

      Cholesky vectors        9870


 Sorry, Molden does not know how to handle
 functions with angular momentum larger than g
--- Stop Module: seward at Sat Nov 23 18:32:18 2024 /rc=_RC_ALL_IS_WELL_ ---
*** files: 801063.GssOrb xmldump
    saved to directory /media/korden/5fb66ce1-8053-4a4f-9303-c4fa91c2cea8/home/korden/calc/orca/Artem/Dyacac4_3567_place/f801063
--- Module seward spent 3 hours 56 minutes 42 seconds ---

*** symbolic link created: INPORB -> 801063.GssOrb
--- Start Module: rasscf at Sat Nov 23 18:32:18 2024 ---

()()()()()()()()()()()()()()()()()()()()()()()()()()()()()()()()()()()()()()()()()()()()()()()()()()

                                              &RASSCF

                                   only a single process is used
                       available to each process: 32 GB of memory, 1 thread?
                                            pid: 425922
()()()()()()()()()()()()()()()()()()()()()()()()()()()()()()()()()()()()()()()()()()()()()()()()()()


      Header of the ONEINT file:
      --------------------------
      
      Integrals generated by Gateway/Seward, Sat Nov 23 14:35:35 2024


      OrdInt status: non-squared


      Cartesian coordinates in Angstrom:
      -----------------------------------------------------
      No.  Label        X            Y            Z        
      -----------------------------------------------------
       1   DY1        4.76328400  17.79224500   4.95166500
       2   O1         5.32940900  20.04074500   5.05436600
       3   O2         3.47800600  18.72289400   6.62824100
       4   O3         5.74826100  18.18617100   2.88987100
       5   O4         3.09500400  18.67077700   3.57454300
       6   O5         5.75690900  15.76818500   4.35951800
       7   O6         3.11282600  16.15990500   5.05436600
       8   N1         7.21902300  17.88313500   5.66199500
       9   N2         5.35870900  16.65102500   7.19851100
      10   C1         8.12630300  18.51211400   4.94243500
      11   C2         9.50084400  18.42385100   5.18664900
      12   C3         9.93008700  17.66941200   6.20566300
      13   C4         9.01813300  17.00954100   7.02407200
      14   C5         9.38856700  16.22778300   8.16664600
      15   C6         8.47692200  15.64776900   8.95016800
      16   C7         7.07356400  15.75914900   8.66089000
      17   C8         6.06782600  15.22326600   9.47493800
      18   C9         4.77785700  15.40819800   9.17548400
      19   C10        4.44820700  16.11850500   8.01401200
      20   C11        6.65502100  16.49257200   7.53285200
      21   C12        7.65275900  17.13752200   6.71008200
      22   C13        5.41986900  22.38517800   5.16629800
      23   C14        4.84881100  21.05913100   5.60239500
      24   C15        3.87294000  21.03181200   6.58506700
      25   C16        3.28214200  19.89490000   7.07785700
      26   C17        2.34265300  19.96214900   8.27131000
      27   C18        6.67816000  19.40315000   1.08733600
      28   C19        5.50398700  19.04169200   1.98569600
      29   C20        4.27792600  19.64692300   1.79235900
      30   C21        3.15568500  19.41996100   2.56570500
      31   C22        1.82777600  20.13447200   2.20519800
      32   C23        6.62023000  13.58199500   4.44964500
      33   C24        5.48221000  14.54868500   4.56157600
      34   C25        4.19400600  14.09896400   4.86975200
      35   C26        3.09555100  14.88912800   5.04709800
      36   C27        1.74706500  14.24396700   5.24188800
      37   H1         7.83753100  19.04169200   4.23595700
      38   H2        10.10725300  18.87987600   4.64734200
      39   H3        10.84264600  17.58955500   6.36847200
      40   H4        10.29081800  16.12060700   8.36725100
      41   H5         8.75348500  15.16232300   9.69444000
      42   H6         6.30058200  14.73571800  10.23084000
      43   H7         4.11098900  15.07195800   9.72932800
      44   H8         3.54890900  16.22358000   7.80177800
      45   H9         6.07096900  22.67938800   5.80736100
      46   H10        4.71423300  23.03244000   5.10669800
      47   H11        5.83812900  22.28640700   4.30718600
      48   H12        3.59690700  21.84719400   6.93830600
      49   H13        1.55756000  19.44097700   8.09105600
      50   H14        2.08949100  20.87630100   8.42830500
      51   H15        2.78685100  19.61540100   9.04901600
      52   H16        7.12632900  20.17440000   1.44202800
      53   H17        6.35649800  19.59648800   0.20496600
      54   H18        7.29105800  18.66552300   1.05099400
      55   H19        4.20169900  20.25005400   1.09024300
      56   H20        1.19430600  19.49141200   1.88103200
      57   H21        1.99244500  20.79224100   1.52488600
      58   H22        1.47266400  20.56527900   2.98726600
      59   H23        6.84763500  13.46220900   3.52366500
      60   H24        6.36321800  12.73719100   4.82759600
      61   H25        7.38040400  13.92664000   4.92353700
      62   H26        4.07609800  13.18060800   4.96133200
      63   H27        1.48243300  14.32802700   6.16059900
      64   H28        1.80019800  13.31510400   5.00784900
      65   H29        1.09999700  14.67897800   4.68223000
      -----------------------------------------------------
      Nuclear repulsion energy = 6390.63886599

++    Wave function specifications:
      -----------------------------

      Number of closed shell electrons         310
      Number of electrons in active shells       9
      Max number of holes in RAS1 space          0
      Max nr of electrons in RAS3 space          0
      Number of inactive orbitals              155
      Number of active orbitals                  7
      Number of secondary orbitals             589
      Spin quantum number                      2.5
      State symmetry                             1
--

++    Orbital specifications:
      -----------------------

      Symmetry species                           1
                                                 a
      Frozen orbitals                            0
      Inactive orbitals                        155
      Active orbitals                            7
      RAS1 orbitals                              0
      RAS2 orbitals                              7
      RAS3 orbitals                              0
      Secondary orbitals                       589
      Deleted orbitals                           0
      Number of basis functions                751
--

++    CI expansion specifications:
      ----------------------------

      Number of CSFs                            21
      Number of determinants                    21
      Number of root(s) required                21
      Root chosen for geometry opt.             21
      CI roots used                              1     2     3     4     5     6     7     8     9    10
                                                11    12    13    14    15    16    17    18    19    20
                                                21
      weights                                0.048 0.048 0.048 0.048 0.048 0.048 0.048 0.048 0.048 0.048
                                             0.048 0.048 0.048 0.048 0.048 0.048 0.048 0.048 0.048 0.048
                                             0.048
      highest root included in the CI           21
      max. size of the explicit Hamiltonian     21
--

++    Optimization specifications:
      ----------------------------

      RASSCF algorithm: LK Cholesky
      Maximum number of macro iterations       200
      Maximum number of SX iterations          100
      Threshold for RASSCF energy            0.100E-07
      Threshold for max MO rotation          0.100E+00
      Threshold for max BLB element          0.100E-03
      Level shift parameter                  0.500E+00
      Make Quasi-Newton update
--

      Orbitals from runfile: guessorb orbitals
      The MO-coefficients are taken from guessorb on runfile

      Total molecular charge    0.00

      ************************************************************************************************************************
      *                                                                                                                      *
      *                                            Wave function control section                                             *
      *                                                                                                                      *
      ************************************************************************************************************************


                                         RASSCF iterations: Energy and convergence statistics
                                         ----------------------------------------------------

      Iter CI   SX   CI       RASSCF       Energy    max ROT     max BLB   max BLB  Level Ln srch  Step   QN   Walltime
          iter iter root      energy       change     param      element    value   shift minimum  type update hh:mm:ss
 Nr of preliminary CI iterations:   1
      Total energies have been shifted. Add               -13000.00 au
        1   1   12    0  -727.45319708    0.00E+00  -0.91E-01  150 746 1 -0.17E+01*  4.55   0.00    SX    NO    0:32:29
        2   1   13    0  -733.75703021   -0.63E+01* -0.16E+00*  26 749 1 -0.49E+00*  2.92   0.00    SX    NO    0:13:41
        3   1   12    0  -737.67931834   -0.39E+01* -0.20E+00*  58 736 1 -0.44E+00*  1.87   0.00    SX    NO    0:14:49
        4   1   12    0  -740.43471412   -0.28E+01* -0.18E+00*  59 748 1  0.30E+00*  1.00   0.00    SX    NO    0:15:14
        5   1   12    0  -742.17091855   -0.17E+01* -0.11E+00* 148 157 1  0.18E+00*  0.58   2.14    QN   YES    0:16:01
        6   1   13    0  -742.91470835   -0.74E+00* -0.11E+00* 148 157 1  0.14E+00*  0.54   2.50    QN   YES    0:16:17
        7   1   13    0  -743.52062918   -0.61E+00* -0.12E+00* 147 158 1  0.11E+00*  0.53   2.50    QN   YES    0:16:19
        8   1   13    0  -743.97679059   -0.46E+00* -0.12E+00* 147 158 1  0.87E-01*  0.53   2.50    QN   YES    0:16:18
        9   1   13    0  -744.27054765   -0.29E+00* -0.87E-01   58 736 1  0.81E-01*  0.50   2.01    QN   YES    0:16:45
       10   1   13    0  -744.42188271   -0.15E+00*  0.15E+00* 148 162 1 -0.81E-01*  0.47   2.10    QN   YES    0:16:26
       11   1   13    0  -744.56236060   -0.14E+00*  0.21E+00* 148 162 1 -0.11E+00*  0.44   2.50    QN   YES    0:16:18
       12   1   13    0  -744.71747442   -0.16E+00*  0.84E-01  151 162 1 -0.10E+00*  0.37   1.27    QN   YES    0:15:53
       13   1   14    0  -744.76350149   -0.46E-01*  0.57E-01  151 162 1 -0.67E-01*  0.33   1.26    QN   YES    0:15:57
       14   1   14    0  -744.81105105   -0.48E-01*  0.45E-01   58 736 1 -0.87E-01*  0.35   1.88    QN   YES    0:16:17
       15   1   14    0  -744.84863737   -0.38E-01*  0.18E-01   58 736 1 -0.39E-01*  0.34   1.50    QN   YES    0:15:58
       16   1   13    0  -744.86477783   -0.16E-01* -0.69E-02   58 736 1 -0.40E-01*  0.39   1.37    QN   YES    0:16:33
       17   1   12    0  -744.86882713   -0.40E-02*  0.31E-02   58 736 1  0.14E-01*  0.38   1.06    QN   YES    0:16:29
       18   1   11    0  -744.86960674   -0.78E-03* -0.10E-02  160 747 1 -0.32E-02*  0.39   0.99    QN   YES    0:17:20
       19   1   10    0  -744.86975178   -0.15E-03* -0.50E-03  160 747 1 -0.90E-03*  0.39   1.48    LS   YES    0:18:23
       20   1   10    0  -744.86976886   -0.17E-04* -0.72E-03   59 748 1 -0.14E-02*  0.39   1.01    QN   YES    0:19:13
       21   1    9    0  -744.86978605   -0.17E-04* -0.48E-03   59 748 1 -0.39E-03*  0.39   1.45    QN   YES    0:18:55
       22   1    9    0  -744.86979270   -0.66E-05*  0.23E-03   59 748 1  0.36E-03*  0.39   1.10    QN   YES    0:19:41
       23   1    8    0  -744.86979403   -0.13E-05*  0.20E-03   59 748 1  0.14E-03*  0.39   1.45    QN   YES    0:19:44
       24   1    8    0  -744.86979459   -0.57E-06* -0.73E-04  149 163 1  0.53E-04   0.39   1.18    QN   YES    0:20:10
       25   1    7    0  -744.86979471   -0.11E-06*  0.48E-04  154 168 1 -0.35E-04   0.39   1.38    QN   YES    0:20:38
       26   1    7    0  -744.86979475   -0.43E-07*  0.30E-04  154 163 1 -0.21E-04   0.39   1.40    QN   YES    0:20:47
       27   1    6    0  -744.86979476   -0.14E-07* -0.18E-04  154 163 1 -0.11E-04   0.39   1.21    QN   YES    0:21:00
       28   1    6    0  -744.86979477   -0.29E-08   0.95E-05  152 164 1  0.58E-05   0.39   2.50    QN   YES    0:21:14
      Convergence after 28 iterations
       29   1    6    0  -744.86979477   -0.82E-09   0.95E-05  152 164 1  0.41E-05   0.39   2.50    QN   YES    0:21:23

      ************************************************************************************************************************
                                                      Wave function printout:
                       occupation of active orbitals, and spin coupling of open shells (u,d: Spin up or down)
      ************************************************************************************************************************

      Note: transformation to natural orbitals
      has been made, which may change the order of the CSFs.

      printout of CI-coefficients larger than  0.05 for root  1
      energy=  -13744.905138
      conf/sym  1111111     Coeff  Weight
             1  22uuuuu   0.29592 0.08757
             2  2u2uuuu  -0.23199 0.05382
             3  u22uuuu   0.24350 0.05929
             5  2uuu2uu  -0.30258 0.09155
             6  2uuuu2u   0.36574 0.13376
             7  2uuuuu2   0.12993 0.01688
             8  u2u2uuu   0.40565 0.16455
             9  u2uu2uu   0.08960 0.00803
            10  u2uuu2u   0.10128 0.01026
            11  u2uuuu2  -0.12791 0.01636
            12  uu22uuu   0.28721 0.08249
            13  uu2u2uu   0.17154 0.02942
            14  uu2uu2u   0.06073 0.00369
            16  uuu22uu  -0.18089 0.03272
            18  uuuu22u   0.06941 0.00482
            19  uuu2uu2  -0.29895 0.08937
            20  uuuu2u2   0.10845 0.01176
            21  uuuuu22  -0.32030 0.10259

      printout of CI-coefficients larger than  0.05 for root  2
      energy=  -13744.905116
      conf/sym  1111111     Coeff  Weight
             1  22uuuuu  -0.40022 0.16018
             2  2u2uuuu  -0.24030 0.05774
             3  u22uuuu   0.11718 0.01373
             4  2uu2uuu   0.24813 0.06157
             5  2uuu2uu  -0.07601 0.00578
             6  2uuuu2u   0.14384 0.02069
             7  2uuuuu2  -0.24266 0.05888
             8  u2u2uuu   0.22416 0.05025
             9  u2uu2uu   0.19515 0.03808
            11  u2uuuu2   0.26420 0.06980
            12  uu22uuu  -0.28475 0.08108
            13  uu2u2uu   0.13287 0.01765
            14  uu2uu2u  -0.30471 0.09285
            15  uu2uuu2   0.08759 0.00767
            16  uuu22uu   0.19899 0.03960
            17  uuu2u2u  -0.37091 0.13757
            18  uuuu22u  -0.20216 0.04087
            19  uuu2uu2  -0.18644 0.03476
            20  uuuu2u2  -0.10062 0.01013

      printout of CI-coefficients larger than  0.05 for root  3
      energy=  -13744.904353
      conf/sym  1111111     Coeff  Weight
             1  22uuuuu  -0.11708 0.01371
             2  2u2uuuu   0.13930 0.01940
             3  u22uuuu  -0.18493 0.03420
             4  2uu2uuu   0.17218 0.02965
             5  2uuu2uu  -0.06276 0.00394
             6  2uuuu2u   0.26268 0.06900
             7  2uuuuu2   0.16124 0.02600
             8  u2u2uuu   0.32298 0.10432
             9  u2uu2uu  -0.08792 0.00773
            10  u2uuu2u  -0.49106 0.24114
            11  u2uuuu2   0.11521 0.01327
            12  uu22uuu   0.20588 0.04239
            14  uu2uu2u   0.29126 0.08483
            15  uu2uuu2   0.09379 0.00880
            16  uuu22uu   0.36591 0.13389
            17  uuu2u2u  -0.13075 0.01710
            18  uuuu22u   0.25665 0.06587
            19  uuu2uu2   0.15918 0.02534
            20  uuuu2u2   0.13500 0.01822
            21  uuuuu22   0.19879 0.03952

      printout of CI-coefficients larger than  0.05 for root  4
      energy=  -13744.904148
      conf/sym  1111111     Coeff  Weight
             1  22uuuuu  -0.05329 0.00284
             2  2u2uuuu  -0.16652 0.02773
             3  u22uuuu   0.31868 0.10155
             4  2uu2uuu   0.21127 0.04464
             5  2uuu2uu   0.11114 0.01235
             6  2uuuu2u  -0.09485 0.00900
             7  2uuuuu2   0.20268 0.04108
             8  u2u2uuu  -0.40209 0.16168
            13  uu2u2uu   0.12387 0.01534
            14  uu2uu2u   0.47302 0.22375
            15  uu2uuu2  -0.12757 0.01628
            16  uuu22uu   0.22634 0.05123
            17  uuu2u2u  -0.18075 0.03267
            18  uuuu22u   0.25204 0.06353
            19  uuu2uu2  -0.23907 0.05715
            20  uuuu2u2  -0.34784 0.12100
            21  uuuuu22  -0.12211 0.01491

      printout of CI-coefficients larger than  0.05 for root  5
      energy=  -13744.904038
      conf/sym  1111111     Coeff  Weight
             1  22uuuuu   0.17105 0.02926
             3  u22uuuu  -0.06260 0.00392
             4  2uu2uuu   0.19025 0.03619
             5  2uuu2uu  -0.14579 0.02125
             6  2uuuu2u   0.19310 0.03729
             7  2uuuuu2  -0.09906 0.00981
             9  u2uu2uu  -0.13370 0.01788
            11  u2uuuu2   0.34023 0.11576
            12  uu22uuu  -0.29397 0.08642
            13  uu2u2uu  -0.30571 0.09346
            14  uu2uu2u   0.05417 0.00293
            16  uuu22uu   0.16449 0.02706
            17  uuu2u2u   0.52820 0.27899
            19  uuu2uu2   0.06511 0.00424
            20  uuuu2u2  -0.30190 0.09115
            21  uuuuu22  -0.37707 0.14218

      printout of CI-coefficients larger than  0.05 for root  6
      energy=  -13744.903609
      conf/sym  1111111     Coeff  Weight
             1  22uuuuu   0.29802 0.08882
             2  2u2uuuu   0.17681 0.03126
             3  u22uuuu  -0.25566 0.06536
             4  2uu2uuu   0.23305 0.05431
             5  2uuu2uu  -0.29697 0.08819
             6  2uuuu2u  -0.24065 0.05791
            10  u2uuu2u  -0.21604 0.04667
            11  u2uuuu2  -0.17970 0.03229
            12  uu22uuu  -0.23031 0.05304
            13  uu2u2uu   0.30700 0.09425
            14  uu2uu2u   0.20580 0.04235
            16  uuu22uu   0.10203 0.01041
            18  uuuu22u  -0.49644 0.24645
            19  uuu2uu2  -0.28310 0.08014
            21  uuuuu22   0.05060 0.00256

      printout of CI-coefficients larger than  0.05 for root  7
      energy=  -13744.903439
      conf/sym  1111111     Coeff  Weight
             1  22uuuuu  -0.16631 0.02766
             2  2u2uuuu  -0.31218 0.09746
             3  u22uuuu  -0.30348 0.09210
             4  2uu2uuu  -0.18253 0.03332
             5  2uuu2uu  -0.53286 0.28394
             6  2uuuu2u  -0.25331 0.06417
             8  u2u2uuu  -0.29738 0.08844
             9  u2uu2uu   0.13365 0.01786
            10  u2uuu2u  -0.13777 0.01898
            11  u2uuuu2   0.12010 0.01442
            12  uu22uuu   0.12146 0.01475
            13  uu2u2uu  -0.23421 0.05486
            14  uu2uu2u  -0.07760 0.00602
            15  uu2uuu2  -0.16426 0.02698
            16  uuu22uu   0.07146 0.00511
            17  uuu2u2u  -0.07361 0.00542
            18  uuuu22u   0.16357 0.02676
            19  uuu2uu2  -0.09365 0.00877
            20  uuuu2u2   0.26605 0.07078
            21  uuuuu22  -0.20405 0.04164

      printout of CI-coefficients larger than  0.05 for root  8
      energy=  -13744.903191
      conf/sym  1111111     Coeff  Weight
             1  22uuuuu  -0.09434 0.00890
             2  2u2uuuu   0.39900 0.15920
             4  2uu2uuu   0.10907 0.01190
             5  2uuu2uu  -0.30780 0.09474
             7  2uuuuu2  -0.24194 0.05853
             8  u2u2uuu  -0.07095 0.00503
             9  u2uu2uu   0.11563 0.01337
            10  u2uuu2u   0.15413 0.02376
            11  u2uuuu2   0.10114 0.01023
            12  uu22uuu   0.35824 0.12833
            14  uu2uu2u  -0.15140 0.02292
            15  uu2uuu2   0.07993 0.00639
            17  uuu2u2u   0.21495 0.04621
            18  uuuu22u   0.21280 0.04528
            19  uuu2uu2  -0.38242 0.14624
            20  uuuu2u2  -0.29301 0.08586
            21  uuuuu22   0.36344 0.13209

      printout of CI-coefficients larger than  0.05 for root  9
      energy=  -13744.903066
      conf/sym  1111111     Coeff  Weight
             1  22uuuuu   0.33470 0.11202
             2  2u2uuuu  -0.13862 0.01922
             4  2uu2uuu   0.18205 0.03314
             5  2uuu2uu   0.05059 0.00256
             7  2uuuuu2  -0.52791 0.27869
             8  u2u2uuu  -0.19837 0.03935
             9  u2uu2uu  -0.20719 0.04293
            10  u2uuu2u  -0.07063 0.00499
            12  uu22uuu   0.27476 0.07550
            13  uu2u2uu   0.39948 0.15959
            14  uu2uu2u  -0.21016 0.04417
            16  uuu22uu   0.23957 0.05739
            17  uuu2u2u  -0.05637 0.00318
            18  uuuu22u   0.15384 0.02367
            19  uuu2uu2   0.26986 0.07283
            20  uuuu2u2   0.08572 0.00735
            21  uuuuu22  -0.14376 0.02067

      printout of CI-coefficients larger than  0.05 for root 10
      energy=  -13744.902518
      conf/sym  1111111     Coeff  Weight
             1  22uuuuu   0.15421 0.02378
             2  2u2uuuu  -0.18530 0.03434
             3  u22uuuu  -0.46758 0.21863
             5  2uuu2uu  -0.12327 0.01520
             6  2uuuu2u   0.21404 0.04581
             7  2uuuuu2   0.21930 0.04809
             9  u2uu2uu   0.27382 0.07498
            10  u2uuu2u   0.31925 0.10192
            11  u2uuuu2   0.15563 0.02422
            12  uu22uuu  -0.06214 0.00386
            13  uu2u2uu   0.30490 0.09296
            15  uu2uuu2  -0.14982 0.02245
            16  uuu22uu  -0.08237 0.00678
            17  uuu2u2u  -0.09427 0.00889
            18  uuuu22u   0.06598 0.00435
            19  uuu2uu2   0.34757 0.12081
            20  uuuu2u2  -0.32138 0.10329
            21  uuuuu22   0.21794 0.04750

      printout of CI-coefficients larger than  0.05 for root 11
      energy=  -13744.902513
      conf/sym  1111111     Coeff  Weight
             1  22uuuuu  -0.22089 0.04879
             2  2u2uuuu  -0.22732 0.05167
             3  u22uuuu  -0.13960 0.01949
             4  2uu2uuu   0.13796 0.01903
             6  2uuuu2u   0.17755 0.03152
             7  2uuuuu2  -0.20431 0.04174
             9  u2uu2uu   0.13085 0.01712
            11  u2uuuu2  -0.57827 0.33440
            12  uu22uuu   0.31496 0.09920
            13  uu2u2uu  -0.29572 0.08745
            14  uu2uu2u   0.08266 0.00683
            15  uu2uuu2  -0.13231 0.01751
            16  uuu22uu   0.14403 0.02075
            17  uuu2u2u   0.10685 0.01142
            18  uuuu22u  -0.33729 0.11376
            19  uuu2uu2   0.12315 0.01517
            20  uuuu2u2  -0.25139 0.06320

      printout of CI-coefficients larger than  0.05 for root 12
      energy=  -13744.870479
      conf/sym  1111111     Coeff  Weight
             1  22uuuuu   0.24956 0.06228
             2  2u2uuuu   0.17813 0.03173
             3  u22uuuu   0.07104 0.00505
             4  2uu2uuu  -0.05100 0.00260
             6  2uuuu2u  -0.44489 0.19793
             7  2uuuuu2   0.09348 0.00874
             8  u2u2uuu   0.43822 0.19204
             9  u2uu2uu   0.11293 0.01275
            11  u2uuuu2  -0.05749 0.00331
            13  uu2u2uu  -0.21916 0.04803
            14  uu2uu2u  -0.23400 0.05476
            15  uu2uuu2  -0.37518 0.14076
            16  uuu22uu   0.27592 0.07613
            17  uuu2u2u  -0.22913 0.05250
            18  uuuu22u   0.11902 0.01417
            19  uuu2uu2   0.07017 0.00492
            20  uuuu2u2  -0.27451 0.07535
            21  uuuuu22  -0.10943 0.01197

      printout of CI-coefficients larger than  0.05 for root 13
      energy=  -13744.870335
      conf/sym  1111111     Coeff  Weight
             1  22uuuuu   0.23306 0.05432
             2  2u2uuuu   0.14497 0.02102
             4  2uu2uuu   0.16955 0.02875
             5  2uuu2uu  -0.10208 0.01042
             6  2uuuu2u   0.31184 0.09725
             7  2uuuuu2   0.26815 0.07190
             8  u2u2uuu  -0.28230 0.07969
            10  u2uuu2u   0.29251 0.08556
            11  u2uuuu2  -0.28817 0.08304
            12  uu22uuu  -0.18949 0.03591
            13  uu2u2uu  -0.23331 0.05443
            14  uu2uu2u  -0.32538 0.10587
            15  uu2uuu2   0.18671 0.03486
            16  uuu22uu   0.38059 0.14485
            17  uuu2u2u  -0.17383 0.03022
            18  uuuu22u   0.09822 0.00965
            19  uuu2uu2  -0.05293 0.00280
            20  uuuu2u2   0.21090 0.04448
            21  uuuuu22   0.05877 0.00345

      printout of CI-coefficients larger than  0.05 for root 14
      energy=  -13744.869659
      conf/sym  1111111     Coeff  Weight
             1  22uuuuu   0.37404 0.13991
             4  2uu2uuu   0.15963 0.02548
             7  2uuuuu2  -0.34187 0.11687
             8  u2u2uuu  -0.05777 0.00334
             9  u2uu2uu   0.14006 0.01962
            11  u2uuuu2   0.19806 0.03923
            13  uu2u2uu  -0.46935 0.22029
            14  uu2uu2u   0.30785 0.09477
            15  uu2uuu2   0.12990 0.01687
            16  uuu22uu  -0.30192 0.09116
            17  uuu2u2u  -0.44904 0.20164
            18  uuuu22u  -0.08287 0.00687
            21  uuuuu22   0.11483 0.01319

      printout of CI-coefficients larger than  0.05 for root 15
      energy=  -13744.869633
      conf/sym  1111111     Coeff  Weight
             1  22uuuuu   0.19252 0.03707
             2  2u2uuuu  -0.36553 0.13361
             3  u22uuuu   0.05521 0.00305
             4  2uu2uuu  -0.29423 0.08657
             5  2uuu2uu  -0.12918 0.01669
             7  2uuuuu2  -0.07185 0.00516
             9  u2uu2uu  -0.30313 0.09189
            10  u2uuu2u  -0.36312 0.13186
            11  u2uuuu2  -0.22844 0.05219
            12  uu22uuu  -0.25974 0.06747
            13  uu2u2uu  -0.06569 0.00432
            14  uu2uu2u  -0.15388 0.02368
            15  uu2uuu2   0.11758 0.01382
            16  uuu22uu  -0.08956 0.00802
            17  uuu2u2u  -0.06025 0.00363
            18  uuuu22u   0.19824 0.03930
            19  uuu2uu2  -0.13027 0.01697
            20  uuuu2u2  -0.36873 0.13596
            21  uuuuu22   0.35537 0.12629

      printout of CI-coefficients larger than  0.05 for root 16
      energy=  -13744.869544
      conf/sym  1111111     Coeff  Weight
             1  22uuuuu  -0.09217 0.00850
             2  2u2uuuu   0.08701 0.00757
             3  u22uuuu   0.56778 0.32238
             5  2uuu2uu  -0.53720 0.28858
             6  2uuuu2u  -0.08327 0.00693
             7  2uuuuu2   0.05091 0.00259
             9  u2uu2uu   0.07851 0.00616
            11  u2uuuu2  -0.05288 0.00280
            12  uu22uuu  -0.06545 0.00428
            13  uu2u2uu   0.07130 0.00508
            14  uu2uu2u   0.06662 0.00444
            15  uu2uuu2   0.05263 0.00277
            17  uuu2u2u   0.06950 0.00483
            18  uuuu22u  -0.13051 0.01703
            19  uuu2uu2   0.54174 0.29348
            21  uuuuu22   0.13965 0.01950

      printout of CI-coefficients larger than  0.05 for root 17
      energy=  -13744.869442
      conf/sym  1111111     Coeff  Weight
             2  2u2uuuu  -0.37703 0.14215
             3  u22uuuu   0.08304 0.00689
             4  2uu2uuu   0.37734 0.14239
             6  2uuuu2u  -0.16331 0.02667
             7  2uuuuu2   0.16071 0.02583
             8  u2u2uuu   0.13032 0.01698
             9  u2uu2uu  -0.43800 0.19184
            10  u2uuu2u   0.27718 0.07683
            11  u2uuuu2   0.19244 0.03703
            12  uu22uuu   0.12957 0.01679
            13  uu2u2uu  -0.13120 0.01721
            15  uu2uuu2  -0.25448 0.06476
            17  uuu2u2u   0.13928 0.01940
            18  uuuu22u  -0.10621 0.01128
            19  uuu2uu2  -0.05436 0.00296
            20  uuuu2u2   0.19618 0.03849
            21  uuuuu22   0.40246 0.16197

      printout of CI-coefficients larger than  0.05 for root 18
      energy=  -13744.869287
      conf/sym  1111111     Coeff  Weight
             1  22uuuuu  -0.16000 0.02560
             2  2u2uuuu   0.05525 0.00305
             3  u22uuuu  -0.07347 0.00540
             4  2uu2uuu   0.20524 0.04213
             5  2uuu2uu  -0.08575 0.00735
             7  2uuuuu2  -0.33143 0.10984
             8  u2u2uuu   0.18990 0.03606
             9  u2uu2uu   0.05157 0.00266
            10  u2uuu2u   0.17278 0.02985
            11  u2uuuu2  -0.35162 0.12364
            12  uu22uuu  -0.44233 0.19565
            14  uu2uu2u   0.21722 0.04718
            15  uu2uuu2  -0.24521 0.06013
            16  uuu22uu  -0.13747 0.01890
            17  uuu2u2u   0.07666 0.00588
            18  uuuu22u   0.47978 0.23019
            20  uuuu2u2   0.22944 0.05264

      printout of CI-coefficients larger than  0.05 for root 19
      energy=  -13744.746452
      conf/sym  1111111     Coeff  Weight
             2  2u2uuuu   0.11765 0.01384
             3  u22uuuu   0.06931 0.00480
             4  2uu2uuu   0.43483 0.18907
             5  2uuu2uu   0.05090 0.00259
             6  2uuuu2u   0.15869 0.02518
             7  2uuuuu2   0.20854 0.04349
             8  u2u2uuu  -0.19593 0.03839
             9  u2uu2uu   0.12075 0.01458
            10  u2uuu2u  -0.43895 0.19268
            14  uu2uu2u  -0.35849 0.12851
            15  uu2uuu2  -0.37295 0.13909
            16  uuu22uu  -0.44343 0.19663
            18  uuuu22u   0.05736 0.00329
            19  uuu2uu2   0.05056 0.00256

      printout of CI-coefficients larger than  0.05 for root 20
      energy=  -13744.745375
      conf/sym  1111111     Coeff  Weight
             1  22uuuuu   0.16779 0.02815
             2  2u2uuuu  -0.30203 0.09122
             4  2uu2uuu   0.27765 0.07709
             5  2uuu2uu   0.15975 0.02552
             6  2uuuu2u  -0.33902 0.11494
             7  2uuuuu2   0.10473 0.01097
             8  u2u2uuu   0.08925 0.00797
             9  u2uu2uu   0.51324 0.26342
            10  u2uuu2u  -0.11475 0.01317
            11  u2uuuu2  -0.06714 0.00451
            14  uu2uu2u  -0.07992 0.00639
            15  uu2uuu2   0.47199 0.22278
            17  uuu2u2u   0.30248 0.09150
            18  uuuu22u   0.14724 0.02168
            20  uuuu2u2   0.08704 0.00758
            21  uuuuu22   0.10748 0.01155

      printout of CI-coefficients larger than  0.05 for root 21
      energy=  -13744.744354
      conf/sym  1111111     Coeff  Weight
             1  22uuuuu   0.20146 0.04059
             2  2u2uuuu  -0.05782 0.00334
             3  u22uuuu   0.20668 0.04272
             4  2uu2uuu  -0.28478 0.08110
             5  2uuu2uu   0.15999 0.02560
             6  2uuuu2u   0.23754 0.05642
             7  2uuuuu2  -0.15240 0.02323
             8  u2u2uuu  -0.09119 0.00831
             9  u2uu2uu   0.39260 0.15413
            10  u2uuu2u  -0.12845 0.01650
            11  u2uuuu2   0.15080 0.02274
            12  uu22uuu  -0.09768 0.00954
            15  uu2uuu2  -0.44040 0.19395
            16  uuu22uu   0.27973 0.07825
            17  uuu2u2u   0.22048 0.04861
            18  uuuu22u  -0.10527 0.01108
            19  uuu2uu2  -0.13485 0.01819
            20  uuuu2u2   0.24261 0.05886
            21  uuuuu22   0.32301 0.10434

      Natural orbitals and occupation numbers for root  1
      sym 1:   1.560875   1.560875   1.005872   1.433253   1.433253   1.005872   1.000000

      Natural orbitals and occupation numbers for root  2
      sym 1:   1.526854   1.001249   1.000000   1.471897   1.001249   1.526854   1.471897

      Natural orbitals and occupation numbers for root  3
      sym 1:   1.000000   1.667236   1.264121   1.264121   1.068643   1.667236   1.068643

      Natural orbitals and occupation numbers for root  4
      sym 1:   1.022445   1.000000   1.604851   1.604851   1.022445   1.372704   1.372704

      Natural orbitals and occupation numbers for root  5
      sym 1:   1.000000   1.081287   1.081287   1.659601   1.259112   1.659601   1.259112

      Natural orbitals and occupation numbers for root  6
      sym 1:   1.000000   1.296774   1.296774   1.073608   1.629618   1.629618   1.073608

      Natural orbitals and occupation numbers for root  7
      sym 1:   1.582420   1.405322   1.405322   1.000000   1.582420   1.012258   1.012258

      Natural orbitals and occupation numbers for root  8
      sym 1:   1.596741   1.000000   1.596741   1.366679   1.036579   1.036579   1.366679

      Natural orbitals and occupation numbers for root  9
      sym 1:   1.577897   1.025431   1.396672   1.000000   1.577897   1.025431   1.396672

      Natural orbitals and occupation numbers for root 10
      sym 1:   1.000000   1.579882   1.579882   1.027969   1.392149   1.027969   1.392149

      Natural orbitals and occupation numbers for root 11
      sym 1:   1.014431   1.563703   1.421866   1.014431   1.421866   1.000000   1.563703

      Natural orbitals and occupation numbers for root 12
      sym 1:   1.317329   1.000000   1.317329   1.327262   1.355409   1.327262   1.355409

      Natural orbitals and occupation numbers for root 13
      sym 1:   1.365676   1.323021   1.000000   1.323021   1.311303   1.365676   1.311303

      Natural orbitals and occupation numbers for root 14
      sym 1:   1.334148   1.000000   1.351281   1.314572   1.351281   1.314572   1.334148

      Natural orbitals and occupation numbers for root 15
      sym 1:   1.327905   1.315840   1.327905   1.000000   1.356255   1.315840   1.356255

      Natural orbitals and occupation numbers for root 16
      sym 1:   1.311392   1.356675   1.356675   1.331933   1.331933   1.000000   1.311392

      Natural orbitals and occupation numbers for root 17
      sym 1:   1.350432   1.315084   1.350432   1.000000   1.334484   1.315084   1.334484

      Natural orbitals and occupation numbers for root 18
      sym 1:   1.000000   1.355610   1.304917   1.339473   1.339473   1.304917   1.355610

      Natural orbitals and occupation numbers for root 19
      sym 1:   1.638477   1.073643   1.000000   1.638477   1.287881   1.287881   1.073643

      Natural orbitals and occupation numbers for root 20
      sym 1:   1.642749   1.000000   1.642749   1.071170   1.286082   1.071170   1.286082

      Natural orbitals and occupation numbers for root 21
      sym 1:   1.000000   1.069113   1.069113   1.277582   1.653304   1.277582   1.653304

      ************************************************************************************************************************
      *                                                                                                                      *
      *                                                    Final results                                                     *
      *                                                                                                                      *
      ************************************************************************************************************************


++    Wave function specifications:
      -----------------------------

      Number of closed shell electrons         310
      Number of electrons in active shells       9
      Max number of holes in RAS1 space          0
      Max nr of electrons in RAS3 space          0
      Number of inactive orbitals              155
      Number of active orbitals                  7
      Number of secondary orbitals             589
      Spin quantum number                      2.5
      State symmetry                             1
--

++    Orbital specifications:
      -----------------------

      Symmetry species                           1
                                                 a
      Frozen orbitals                            0
      Inactive orbitals                        155
      Active orbitals                            7
      RAS1 orbitals                              0
      RAS2 orbitals                              7
      RAS3 orbitals                              0
      Secondary orbitals                       589
      Deleted orbitals                           0
      Number of basis functions                751
--

++    CI expansion specifications:
      ----------------------------

      Number of CSFs                            21
      Number of determinants                    21
      Number of root(s) required                21
      CI roots used                              1     2     3     4     5     6     7     8     9    10
                                                11    12    13    14    15    16    17    18    19    20
                                                21
      weights                                0.048 0.048 0.048 0.048 0.048 0.048 0.048 0.048 0.048 0.048
                                             0.048 0.048 0.048 0.048 0.048 0.048 0.048 0.048 0.048 0.048
                                             0.048
      highest root included in the CI           21
      Root passed to geometry opt.              21
--

++    Final optimization conditions:
      ------------------------------

      Average CI energy                          -13744.86979477
      RASSCF energy for state 21                 -13744.74435379
      Super-CI energy                                -0.00000000
      RASSCF energy change                           -0.00000000
      Max change in MO coefficients               0.635E-05
      Max non-diagonal density matrix element     0.953E-05
      Maximum BLB matrix element                  0.406E-05
      (orbital pair 152, 164 in symmetry   1)
      Norm of electronic gradient            0.383E+00
--


      Final state energy(ies):
      ------------------------

::    RASSCF root number  1 Total energy: -13744.90513806
::    RASSCF root number  2 Total energy: -13744.90511554
::    RASSCF root number  3 Total energy: -13744.90435274
::    RASSCF root number  4 Total energy: -13744.90414766
::    RASSCF root number  5 Total energy: -13744.90403772
::    RASSCF root number  6 Total energy: -13744.90360867
::    RASSCF root number  7 Total energy: -13744.90343894
::    RASSCF root number  8 Total energy: -13744.90319141
::    RASSCF root number  9 Total energy: -13744.90306606
::    RASSCF root number 10 Total energy: -13744.90251836
::    RASSCF root number 11 Total energy: -13744.90251310
::    RASSCF root number 12 Total energy: -13744.87047933
::    RASSCF root number 13 Total energy: -13744.87033531
::    RASSCF root number 14 Total energy: -13744.86965922
::    RASSCF root number 15 Total energy: -13744.86963263
::    RASSCF root number 16 Total energy: -13744.86954448
::    RASSCF root number 17 Total energy: -13744.86944224
::    RASSCF root number 18 Total energy: -13744.86928727
::    RASSCF root number 19 Total energy: -13744.74645234
::    RASSCF root number 20 Total energy: -13744.74537520
::    RASSCF root number 21 Total energy: -13744.74435379

++    Molecular orbitals:
      -------------------

      Pseudonatural active orbitals and approximate occupation numbers


      MOLECULAR ORBITALS FOR SYMMETRY SPECIES 1: a  

      INDEX  ENERGY  OCCUPATION COEFFICIENTS ...
          1-1983.9186    2.0000                                                                                                           
                 1 DY1    1s     ( 1.0000)
          2 -335.2327    2.0000                                                                                                           
                 2 DY1    2s     ( 1.0000)
          3 -298.0435    2.0000                                                                                                           
                 9 DY1    2px    ( 0.6666)  23 DY1    2pz    ( 0.7429)
          4 -298.0435    2.0000                                                                                                           
                 9 DY1    2px    (-0.6875)  16 DY1    2py    (-0.4353)  23 DY1    2pz    ( 0.5813)
          5 -298.0435    2.0000                                                                                                           
                 9 DY1    2px    (-0.2881)  16 DY1    2py    ( 0.8982)  23 DY1    2pz    ( 0.3319)
          6  -76.7180    2.0000                                                                                                           
                 3 DY1    3s     ( 1.0000)
          7  -64.9963    2.0000                                                                                                           
                10 DY1    3px    ( 0.7294)  24 DY1    3pz    ( 0.6826)
          8  -64.9962    2.0000                                                                                                           
                10 DY1    3px    (-0.6345)  17 DY1    3py    (-0.4173)  24 DY1    3pz    ( 0.6506)
          9  -64.9961    2.0000                                                                                                           
                10 DY1    3px    (-0.2556)  17 DY1    3py    ( 0.9077)  24 DY1    3pz    ( 0.3329)
         10  -49.5424    2.0000                                                                                                           
                30 DY1    3d2-   (-0.2272)  35 DY1    3d1-   (-0.2757)  40 DY1    3d0    ( 0.1137)  45 DY1    3d1+   ( 0.8269)
                50 DY1    3d2+   ( 0.4191)
         11  -49.5424    2.0000                                                                                                           
                30 DY1    3d2-   (-0.4457)  35 DY1    3d1-   (-0.2341)  40 DY1    3d0    ( 0.8175)  45 DY1    3d1+   (-0.2563)
                50 DY1    3d2+   (-0.1118)
         12  -49.5422    2.0000                                                                                                           
                30 DY1    3d2-   ( 0.8338)  35 DY1    3d1-   (-0.3776)  40 DY1    3d0    ( 0.3658)  45 DY1    3d1+   ( 0.1151)
                50 DY1    3d2+   (-0.1228)
         13  -49.5422    2.0000                                                                                                           
                30 DY1    3d2-   ( 0.1766)  35 DY1    3d1-   ( 0.1076)  40 DY1    3d0    ( 0.1283)  45 DY1    3d1+   (-0.3846)
                50 DY1    3d2+   ( 0.8904)
         14  -49.5421    2.0000                                                                                                           
                30 DY1    3d2-   ( 0.1524)  35 DY1    3d1-   ( 0.8456)  40 DY1    3d0    ( 0.4104)  45 DY1    3d1+   ( 0.2990)
      
         15  -20.5183    2.0000                                                                                                           
               105 O1     1s     (-0.9998)
         16  -20.5141    2.0000                                                                                                           
               225 O5     1s     ( 0.9998)
         17  -20.5101    2.0000                                                                                                           
               135 O2     1s     (-0.9998)
         18  -20.5071    2.0000                                                                                                           
               255 O6     1s     ( 0.9998)
         19  -20.5067    2.0000                                                                                                           
               165 O3     1s     ( 0.9998)
         20  -20.5037    2.0000                                                                                                           
               195 O4     1s     (-0.9998)
         21  -16.2365    2.0000                                                                                                           
                 4 DY1    4s     ( 0.9995)
         22  -15.6005    2.0000                                                                                                           
               315 N2     1s     ( 1.0003)
         23  -15.5984    2.0000                                                                                                           
               285 N1     1s     ( 1.0003)
         24  -12.2600    2.0000                                                                                                           
                11 DY1    4px    ( 0.7859)  25 DY1    4pz    ( 0.6177)
         25  -12.2598    2.0000                                                                                                           
                11 DY1    4px    (-0.5726)  18 DY1    4py    (-0.3446)  25 DY1    4pz    ( 0.7438)
         26  -12.2595    2.0000                                                                                                           
                11 DY1    4px    (-0.2330)  18 DY1    4py    ( 0.9383)  25 DY1    4pz    ( 0.2553)
         27  -11.3078    2.0000                                                                                                           
               667 C24    1s     (-0.9999)
         28  -11.3064    2.0000                                                                                                           
               527 C14    1s     ( 0.9999)
         29  -11.3036    2.0000                                                                                                           
               485 C11    1s     ( 0.8991) 499 C12    1s     ( 0.4372)
         30  -11.3026    2.0000                                                                                                           
               555 C16    1s     ( 0.9999)
         31  -11.3024    2.0000                                                                                                           
               485 C11    1s     (-0.4371) 499 C12    1s     ( 0.8990)
         32  -11.2987    2.0000                                                                                                           
               597 C19    1s     ( 0.9999)
         33  -11.2982    2.0000                                                                                                           
[...]
   6      0.577350269190     0.577350269190     0.577350269190     0.006101255491
   7     -0.577350269190     0.577350269190     0.577350269190     0.006101255491
   8      0.577350269190    -0.577350269190     0.577350269190     0.006101255491
   9     -0.577350269190    -0.577350269190     0.577350269190     0.006101255491
  10      0.706896546391     0.706896546391     0.024383301669     0.003242209201
  11     -0.706896546391     0.706896546391     0.024383301669     0.003242209201
  12      0.706896546391    -0.706896546391     0.024383301669     0.003242209201
  13     -0.706896546391    -0.706896546391     0.024383301669     0.003242209201
  14      0.706896546391     0.024383301669     0.706896546391     0.003242209201
  15     -0.706896546391     0.024383301669     0.706896546391     0.003242209201
  16      0.706896546391    -0.024383301669     0.706896546391     0.003242209201
  17     -0.706896546391    -0.024383301669     0.706896546391     0.003242209201
  18      0.024383301669     0.706896546391     0.706896546391     0.003242209201
  19     -0.024383301669     0.706896546391     0.706896546391     0.003242209201
  20      0.024383301669    -0.706896546391     0.706896546391     0.003242209201
  21     -0.024383301669    -0.706896546391     0.706896546391     0.003242209201
  22      0.479468262571     0.479468262571     0.734996850588     0.006011402970
  23     -0.479468262571     0.479468262571     0.734996850588     0.006011402970
  24      0.479468262571    -0.479468262571     0.734996850588     0.006011402970
  25     -0.479468262571    -0.479468262571     0.734996850588     0.006011402970
  26      0.479468262571     0.734996850588     0.479468262571     0.006011402970
  27     -0.479468262571     0.734996850588     0.479468262571     0.006011402970
  28      0.479468262571    -0.734996850588     0.479468262571     0.006011402970
  29     -0.479468262571    -0.734996850588     0.479468262571     0.006011402970
  30      0.734996850588     0.479468262571     0.479468262571     0.006011402970
  31     -0.734996850588     0.479468262571     0.479468262571     0.006011402970
  32      0.734996850588    -0.479468262571     0.479468262571     0.006011402970
  33     -0.734996850588    -0.479468262571     0.479468262571     0.006011402970
  34      0.192753315488     0.192753315488     0.962129055136     0.005981985059
  35     -0.192753315488     0.192753315488     0.962129055136     0.005981985059
  36      0.192753315488    -0.192753315488     0.962129055136     0.005981985059
  37     -0.192753315488    -0.192753315488     0.962129055136     0.005981985059
  38      0.192753315488     0.962129055136     0.192753315488     0.005981985059
  39     -0.192753315488     0.962129055136     0.192753315488     0.005981985059
  40      0.192753315488    -0.962129055136     0.192753315488     0.005981985059
  41     -0.192753315488    -0.962129055136     0.192753315488     0.005981985059
  42      0.962129055136     0.192753315488     0.192753315488     0.005981985059
  43     -0.962129055136     0.192753315488     0.192753315488     0.005981985059
  44      0.962129055136    -0.192753315488     0.192753315488     0.005981985059
  45     -0.962129055136    -0.192753315488     0.192753315488     0.005981985059
  46      0.693035796133     0.693035796133     0.198501311223     0.005964341288
  47     -0.693035796133     0.693035796133     0.198501311223     0.005964341288
  48      0.693035796133    -0.693035796133     0.198501311223     0.005964341288
  49     -0.693035796133    -0.693035796133     0.198501311223     0.005964341288
  50      0.693035796133     0.198501311223     0.693035796133     0.005964341288
  51     -0.693035796133     0.198501311223     0.693035796133     0.005964341288
  52      0.693035796133    -0.198501311223     0.693035796133     0.005964341288
  53     -0.693035796133    -0.198501311223     0.693035796133     0.005964341288
  54      0.198501311223     0.693035796133     0.693035796133     0.005964341288
  55     -0.198501311223     0.693035796133     0.693035796133     0.005964341288
  56      0.198501311223    -0.693035796133     0.693035796133     0.005964341288
  57     -0.198501311223    -0.693035796133     0.693035796133     0.005964341288
  58      0.360830211552     0.360830211552     0.860001812128     0.005443128475
  59     -0.360830211552     0.360830211552     0.860001812128     0.005443128475
  60      0.360830211552    -0.360830211552     0.860001812128     0.005443128475
  61     -0.360830211552    -0.360830211552     0.860001812128     0.005443128475
  62      0.360830211552     0.860001812128     0.360830211552     0.005443128475
  63     -0.360830211552     0.860001812128     0.360830211552     0.005443128475
  64      0.360830211552    -0.860001812128     0.360830211552     0.005443128475
  65     -0.360830211552    -0.860001812128     0.360830211552     0.005443128475
  66      0.860001812128     0.360830211552     0.360830211552     0.005443128475
  67     -0.860001812128     0.360830211552     0.360830211552     0.005443128475
  68      0.860001812128    -0.360830211552     0.360830211552     0.005443128475
  69     -0.860001812128    -0.360830211552     0.360830211552     0.005443128475
  70      0.649848616150     0.649848616150     0.394199888606     0.006067027592
  71     -0.649848616150     0.649848616150     0.394199888606     0.006067027592
  72      0.649848616150    -0.649848616150     0.394199888606     0.006067027592
  73     -0.649848616150    -0.649848616150     0.394199888606     0.006067027592
  74      0.649848616150     0.394199888606     0.649848616150     0.006067027592
  75     -0.649848616150     0.394199888606     0.649848616150     0.006067027592
  76      0.649848616150    -0.394199888606     0.649848616150     0.006067027592
  77     -0.649848616150    -0.394199888606     0.649848616150     0.006067027592
  78      0.394199888606     0.649848616150     0.649848616150     0.006067027592
  79     -0.394199888606     0.649848616150     0.649848616150     0.006067027592
  80      0.394199888606    -0.649848616150     0.649848616150     0.006067027592
  81     -0.394199888606    -0.649848616150     0.649848616150     0.006067027592
  82      0.193294501323     0.981140782843     0.000000000000     0.003007949555
  83     -0.193294501323     0.981140782843     0.000000000000     0.003007949555
  84      0.193294501323    -0.981140782843     0.000000000000     0.003007949555
  85     -0.193294501323    -0.981140782843     0.000000000000     0.003007949555
  86      0.981140782843     0.193294501323     0.000000000000     0.003007949555
  87     -0.981140782843     0.193294501323     0.000000000000     0.003007949555
  88      0.981140782843    -0.193294501323     0.000000000000     0.003007949555
  89     -0.981140782843    -0.193294501323     0.000000000000     0.003007949555
  90      0.193294501323     0.000000000000     0.981140782843     0.006015899110
  91     -0.193294501323     0.000000000000     0.981140782843     0.006015899110
  92      0.981140782843     0.000000000000     0.193294501323     0.006015899110
  93     -0.981140782843     0.000000000000     0.193294501323     0.006015899110
  94      0.000000000000     0.193294501323     0.981140782843     0.006015899110
  95      0.000000000000    -0.193294501323     0.981140782843     0.006015899110
  96      0.000000000000     0.981140782843     0.193294501323     0.006015899110
  97      0.000000000000    -0.981140782843     0.193294501323     0.006015899110
  98      0.380049491990     0.924966152699     0.000000000000     0.002881964603
  99     -0.380049491990     0.924966152699     0.000000000000     0.002881964603
 100      0.380049491990    -0.924966152699     0.000000000000     0.002881964603
 101     -0.380049491990    -0.924966152699     0.000000000000     0.002881964603
 102      0.924966152699     0.380049491990     0.000000000000     0.002881964603
 103     -0.924966152699     0.380049491990     0.000000000000     0.002881964603
 104      0.924966152699    -0.380049491990     0.000000000000     0.002881964603
 105     -0.924966152699    -0.380049491990     0.000000000000     0.002881964603
 106      0.380049491990     0.000000000000     0.924966152699     0.005763929206
 107     -0.380049491990     0.000000000000     0.924966152699     0.005763929206
 108      0.924966152699     0.000000000000     0.380049491990     0.005763929206
 109     -0.924966152699     0.000000000000     0.380049491990     0.005763929206
 110      0.000000000000     0.380049491990     0.924966152699     0.005763929206
 111      0.000000000000    -0.380049491990     0.924966152699     0.005763929206
 112      0.000000000000     0.924966152699     0.380049491990     0.005763929206
 113      0.000000000000    -0.924966152699     0.380049491990     0.005763929206
 114      0.289955882550     0.793453785658     0.535123047718     0.005916715253
 115     -0.289955882550     0.793453785658     0.535123047718     0.005916715253
 116      0.289955882550    -0.793453785658     0.535123047718     0.005916715253
 117     -0.289955882550    -0.793453785658     0.535123047718     0.005916715253
 118      0.289955882550     0.535123047718     0.793453785658     0.005916715253
 119     -0.289955882550     0.535123047718     0.793453785658     0.005916715253
 120      0.289955882550    -0.535123047718     0.793453785658     0.005916715253
 121     -0.289955882550    -0.535123047718     0.793453785658     0.005916715253
 122      0.793453785658     0.289955882550     0.535123047718     0.005916715253
 123     -0.793453785658     0.289955882550     0.535123047718     0.005916715253
 124      0.793453785658    -0.289955882550     0.535123047718     0.005916715253
 125     -0.793453785658    -0.289955882550     0.535123047718     0.005916715253
 126      0.793453785658     0.535123047718     0.289955882550     0.005916715253
 127     -0.793453785658     0.535123047718     0.289955882550     0.005916715253
 128      0.793453785658    -0.535123047718     0.289955882550     0.005916715253
 129     -0.793453785658    -0.535123047718     0.289955882550     0.005916715253
 130      0.535123047718     0.289955882550     0.793453785658     0.005916715253
 131     -0.535123047718     0.289955882550     0.793453785658     0.005916715253
 132      0.535123047718    -0.289955882550     0.793453785658     0.005916715253
 133     -0.535123047718    -0.289955882550     0.793453785658     0.005916715253
 134      0.535123047718     0.793453785658     0.289955882550     0.005916715253
 135     -0.535123047718     0.793453785658     0.289955882550     0.005916715253
 136      0.535123047718    -0.793453785658     0.289955882550     0.005916715253
 137     -0.535123047718    -0.793453785658     0.289955882550     0.005916715253
 138      0.096841214551     0.828080150669     0.552182074349     0.006072040053
 139     -0.096841214551     0.828080150669     0.552182074349     0.006072040053
 140      0.096841214551    -0.828080150669     0.552182074349     0.006072040053
 141     -0.096841214551    -0.828080150669     0.552182074349     0.006072040053
 142      0.096841214551     0.552182074349     0.828080150669     0.006072040053
 143     -0.096841214551     0.552182074349     0.828080150669     0.006072040053
 144      0.096841214551    -0.552182074349     0.828080150669     0.006072040053
 145     -0.096841214551    -0.552182074349     0.828080150669     0.006072040053
 146      0.828080150669     0.096841214551     0.552182074349     0.006072040053
 147     -0.828080150669     0.096841214551     0.552182074349     0.006072040053
 148      0.828080150669    -0.096841214551     0.552182074349     0.006072040053
 149     -0.828080150669    -0.096841214551     0.552182074349     0.006072040053
 150      0.828080150669     0.552182074349     0.096841214551     0.006072040053
 151     -0.828080150669     0.552182074349     0.096841214551     0.006072040053
 152      0.828080150669    -0.552182074349     0.096841214551     0.006072040053
 153     -0.828080150669    -0.552182074349     0.096841214551     0.006072040053
 154      0.552182074349     0.096841214551     0.828080150669     0.006072040053
 155     -0.552182074349     0.096841214551     0.828080150669     0.006072040053
 156      0.552182074349    -0.096841214551     0.828080150669     0.006072040053
 157     -0.552182074349    -0.096841214551     0.828080150669     0.006072040053
 158      0.552182074349     0.828080150669     0.096841214551     0.006072040053
 159     -0.552182074349     0.828080150669     0.096841214551     0.006072040053
 160      0.552182074349    -0.828080150669     0.096841214551     0.006072040053
 161     -0.552182074349    -0.828080150669     0.096841214551     0.006072040053
 162      0.183343464704     0.907465826531     0.378009189874     0.005664374808
 163     -0.183343464704     0.907465826531     0.378009189874     0.005664374808
 164      0.183343464704    -0.907465826531     0.378009189874     0.005664374808
 165     -0.183343464704    -0.907465826531     0.378009189874     0.005664374808
 166      0.183343464704     0.378009189874     0.907465826531     0.005664374808
 167     -0.183343464704     0.378009189874     0.907465826531     0.005664374808
 168      0.183343464704    -0.378009189874     0.907465826531     0.005664374808
 169     -0.183343464704    -0.378009189874     0.907465826531     0.005664374808
 170      0.907465826531     0.183343464704     0.378009189874     0.005664374808
 171     -0.907465826531     0.183343464704     0.378009189874     0.005664374808
 172      0.907465826531    -0.183343464704     0.378009189874     0.005664374808
 173     -0.907465826531    -0.183343464704     0.378009189874     0.005664374808
 174      0.907465826531     0.378009189874     0.183343464704     0.005664374808
 175     -0.907465826531     0.378009189874     0.183343464704     0.005664374808
 176      0.907465826531    -0.378009189874     0.183343464704     0.005664374808
 177     -0.907465826531    -0.378009189874     0.183343464704     0.005664374808
 178      0.378009189874     0.183343464704     0.907465826531     0.005664374808
 179     -0.378009189874     0.183343464704     0.907465826531     0.005664374808
 180      0.378009189874    -0.183343464704     0.907465826531     0.005664374808
 181     -0.378009189874    -0.183343464704     0.907465826531     0.005664374808
 182      0.378009189874     0.907465826531     0.183343464704     0.005664374808
 183     -0.378009189874     0.907465826531     0.183343464704     0.005664374808
 184      0.378009189874    -0.907465826531     0.183343464704     0.005664374808
 185     -0.378009189874    -0.907465826531     0.183343464704     0.005664374808
  --------------------------------------------------------------------------------
  The cut-off energy for the exact diagonalization of the Zeeman Hamiltonian is:
  E =  1300.907094000 cm(-1).
  The exact diagonalization of the Zeeman Hamiltonian included  16 exchange states.
  The magnetization vector was not calculated.
  Computation of the Zeeman splitting was not requested.

                         HIGH-FIELD POWDER MAGNETIZATION
                              (Units: Bohr magneton)

-----------|---------------|---------------|---------------|---------------|
   H(T)    |STATISTICAL SUM|     2.000 K.  |     4.000 K.  |     6.000 K.  |
-----------|---------------|---------------|---------------|---------------|
  0.000100 |     1.9995175 |  0.0010595651 |  0.0005320410 |  0.0003561997 |
  0.100000 |     1.6171679 |  1.0377926615 |  0.5292579363 |  0.3553714742 |
  0.200000 |     1.3808968 |  1.9589190257 |  1.0423077418 |  0.7058398220 |
  0.300000 |     1.2350783 |  2.7006595950 |  1.5252225265 |  1.0468215991 |
  0.400000 |     1.1450840 |  3.2602524879 |  1.9679388000 |  1.3743258599 |
  0.500000 |     1.0895425 |  3.6678955187 |  2.3647993345 |  1.6851452024 |
  0.600000 |     1.0552639 |  3.9611817482 |  2.7141670519 |  1.9769494330 |
  0.700000 |     1.0341082 |  4.1727207538 |  3.0174912584 |  2.2482861185 |
  0.800000 |     1.0210513 |  4.3270821111 |  3.2782282752 |  2.4985070380 |
  0.900000 |     1.0129929 |  4.4416322649 |  3.5008877096 |  2.7276465613 |
  1.000000 |     1.0080193 |  4.5283115425 |  3.6903205050 |  2.9362778300 |
  1.100000 |     1.0049496 |  4.5952597598 |  3.8512554445 |  3.1253677555 |
  1.200000 |     1.0030550 |  4.6480378457 |  3.9880379032 |  3.2961450757 |
  1.300000 |     1.0018857 |  4.6904765747 |  4.1045116190 |  3.4499891709 |
  1.400000 |     1.0011639 |  4.7252463337 |  4.2039911711 |  3.5883421893 |
  1.500000 |     1.0007185 |  4.7542345384 |  4.2892861382 |  3.7126435875 |
  1.600000 |     1.0004435 |  4.7787950997 |  4.3627507680 |  3.8242842878 |
  1.700000 |     1.0002738 |  4.7999140288 |  4.4263430153 |  3.9245768843 |
  1.800000 |     1.0001690 |  4.8183202692 |  4.4816837745 |  4.0147382940 |
  1.900000 |     1.0001043 |  4.8345606488 |  4.5301116073 |  4.0958816192 |
  2.000000 |     1.0000644 |  4.8490511697 |  4.5727309700 |  4.1690145200 |
  2.100000 |     1.0000398 |  4.8621125466 |  4.6104534729 |  4.2350419643 |
  2.200000 |     1.0000245 |  4.8739951488 |  4.6440325036 |  4.2947717365 |
  2.300000 |     1.0000152 |  4.8848967326 |  4.6740919108 |  4.3489215197 |
  2.400000 |     1.0000094 |  4.8949752084 |  4.7011495671 |  4.3981267186 |
  2.500000 |     1.0000058 |  4.9043579471 |  4.7256366184 |  4.4429484509 |
  2.600000 |     1.0000036 |  4.9131486477 |  4.7479131583 |  4.4838813401 |
  2.700000 |     1.0000022 |  4.9214324625 |  4.7682809682 |  4.5213608797 |
  2.800000 |     1.0000014 |  4.9292798667 |  4.7869938676 |  4.5557702452 |
  2.900000 |     1.0000008 |  4.9367496103 |  4.8042661255 |  4.5874464963 |
  3.000000 |     1.0000005 |  4.9438909931 |  4.8202793039 |  4.6166861572 |
  3.100000 |     1.0000003 |  4.9507456366 |  4.8351878338 |  4.6437501952 |
  3.200000 |     1.0000002 |  4.9573488748 |  4.8491235680 |  4.6688684311 |
  3.300000 |     1.0000001 |  4.9637308568 |  4.8621995077 |  4.6922434271 |
  3.400000 |     1.0000001 |  4.9699174285 |  4.8745128595 |  4.7140539009 |
  3.500000 |     1.0000000 |  4.9759308416 |  4.8861475517 |  4.7344577144 |
  3.600000 |     1.0000000 |  4.9817903298 |  4.8971763100 |  4.7535944849 |
  3.700000 |     1.0000000 |  4.9875125789 |  4.9076623762 |  4.7715878630 |
  3.800000 |     1.0000000 |  4.9931121136 |  4.9176609354 |  4.7885475170 |
  3.900000 |     1.0000000 |  4.9986016172 |  4.9272203044 |  4.8045708616 |
  4.000000 |     1.0000000 |  5.0039921982 |  4.9363829253 |  4.8197445624 |
  4.100000 |     1.0000000 |  5.0092936123 |  4.9451861980 |  4.8341458461 |
  4.200000 |     1.0000000 |  5.0145144496 |  4.9536631809 |  4.8478436413 |
  4.300000 |     1.0000000 |  5.0196622925 |  4.9618431814 |  4.8608995723 |
  4.400000 |     1.0000000 |  5.0247438497 |  4.9697522568 |  4.8733688257 |
  4.500000 |     1.0000000 |  5.0297650697 |  4.9774136382 |  4.8853009061 |
  4.600000 |     1.0000000 |  5.0347312385 |  4.9848480929 |  4.8967402963 |
  4.700000 |     1.0000000 |  5.0396470627 |  4.9920742330 |  4.9077270343 |
  4.800000 |     1.0000000 |  5.0445167417 |  4.9991087805 |  4.9182972179 |
  4.900000 |     1.0000000 |  5.0493440291 |  5.0059667950 |  4.9284834470 |
  5.000000 |     1.0000000 |  5.0541322863 |  5.0126618697 |  4.9383152113 |
-----------|---------------|---------------|---------------|---------------|
--- Stop Module: single_aniso at Sun Nov 24 04:36:12 2024 /rc=_RC_ALL_IS_WELL_ ---
*** files: xmldump
    saved to directory /media/korden/5fb66ce1-8053-4a4f-9303-c4fa91c2cea8/home/korden/calc/orca/Artem/Dyacac4_3567_place/f801063
--- Module single_aniso spent 25 seconds ---

>>> COPY 801063.aniso /media/korden/5fb66ce1-8053-4a4f-9303-c4fa91c2cea8/home/korden/calc/orca/Artem/Dyacac4_3567_place/f801063/801063.aniso

    Timing: Wall=50436.34 User=49774.92 System=402.46