   This run of MOLCAS is using the pymolcas driver

                             OPE
                             OPE          NMOL  CASOP  ENMOLC A   SO
                 OPE        NMOLC        AS  OP EN  MO LC     AS  OP
                OPENM       OL CA        SO  PE NM  OL CA     SOP EN
                OP EN      MO   LC       AS  OP ENMOL  CASO   PENMOL
                OP  EN     MO   LC       AS  OP EN     MO     LC ASO
               OP   E  NMOL  C  AS       OP  EN MO     LC     AS  OP
               OP  E   NMO   LC AS        OPEN  MO     LCASOP EN   M
               O  PEN   MO  LCA  SO
            OPE   NMO   L   CAS    OP
        OPENMOL  CASOP     ENMOL   CASOPE
     OPENMOLCA   SOPENMOLCASOPEN   MOLCASOPE
    OPENMOLCAS   OP           EN   MOL    CAS
    OPENMOLCAS       OP  ENM        O     LCA
    OPENMOLCAS    OPEN  MOLCASO     P  E  NMO
    OPENMOLCAS     OP               E  N  MOL
    OPENMOLCA   SO           PENM   O  L  CAS    OPEN    MO    LCAS
    OPENMOLCA   SOP           ENM   O  L  CAS   OP  EN  MOLC  AS   O
    OPENMOLCA   SOPE           NM      O  LCA   S      OP  EN MO
    OPENMOLC                AS         O  PEN   M      OL  CA  SOPE
    OPENMO        LCASOPE  NMOL        C  ASO   P      ENMOLC     AS
    OPE     NMO      LCA  SO     P     E   NM   OL  CA SO  PE N   MO
          OPENMOLCA            SOPE   NMO        LCAS  O    P  ENMO
     OPENMOLCASOPENMOLCASOPENMOLCASOPENMOLCA
        OPENMOLCASOPENMOLCASOPENMOLCASOPE
            OPENMOLCASOPENMOLCASOPENM
               OPENMOLCASOPENMOLCA        version: v19.11 ?
                   OPENMOLCASO
                       OPE                tag:

 OpenMolcas is free software; you can redistribute it and/or modify it
 under the terms of the GNU Lesser General Public License version 2.1.
 OpenMolcas is distributed in the hope that it will be useful, but it
 is provided "as is" and without any express or implied warranties.
 For more details see the full text of the license in the file
 LICENSE or in <http://www.gnu.org/licenses/>.

                 Copyright (C) The OpenMolcas Authors
           For the author list and the recommended citation,
                   consult the file CONTRIBUTORS.md

           *************************************************
           * pymolcas version py2.06                       *
           *   build 99e611e35fc7aec87fd6f34cfa558dd4      *
           *   (after the EMIL interpreter by V. Veryazov) *
           *************************************************


   --------------------------------------------------------------------------------------------------------------------------------
  |
  |              Project: 806774
  |       Submitted from: /media/korden/5fb66ce1-8053-4a4f-9303-c4fa91c2cea8/home/korden/calc/orca/Artem/Dyacac4_3567_place/f806774
  |         Scratch area: /tmp/806774
  |      Save outputs to: /media/korden/5fb66ce1-8053-4a4f-9303-c4fa91c2cea8/home/korden/calc/orca/Artem/Dyacac4_3567_place/f806774
  |               Molcas: /usr/share/openmolcas
  |
  | Scratch area is empty
  |
  |        MOLCAS_COLOR = YES
  |       MOLCAS_DRIVER = /usr/bin/pymolcas
  | MOLCAS_KEEP_WORKDIR = YES
  |      MOLCAS_MAXITER = 100
  |       MOLCAS_MOLDEN = YES
  |  MOLCAS_NEW_WORKDIR = NO
  |       MOLCAS_NPROCS = 1
  |        MOLCAS_PRINT = NORMAL
  |         MOLCAS_SAVE = ORIG
  |       MOLCAS_SOURCE = /home/korden/build
  |    MOLCAS_STRUCTURE = 0
  |         MOLCAS_TRAP = YES
  |
   --------------------------------------------------------------------------------------------------------------------------------

++ ---------   Input file   ---------

&GATEWAY
Douglas-Kroll

AMFI
ANGM
 -1.922383 6.591980 3.678787  Angstrom

Basis Set
Dy.ANO-RCC-VTZP.
 Dy1    -1.922383 6.591980 3.678787    Angstrom
End of Basis Set

Basis Set
O.ANO-RCC-VTZP.
 O1    -1.142485 7.594039 1.742708    Angstrom
 O2    -0.561146 5.035813 2.642475    Angstrom
 O3    -3.305820 4.796993 3.286520    Angstrom
 O4    -3.833952 7.450210 2.664575    Angstrom
 O5    -3.331631 7.023122 5.535939    Angstrom
 O6    -1.098515 5.381272 5.468061    Angstrom
End of Basis Set

Basis Set
N.ANO-RCC-VTZP.
 N1    0.435978 7.484380 4.309413    Angstrom
 N2    -1.704438 9.116750 4.194180    Angstrom
 N3    3.290581 11.125248 5.636965    Angstrom
 N4    1.061904 12.854428 5.512261    Angstrom
End of Basis Set

Basis Set
C.ANO-RCC-VDZP.
 C1    1.484552 6.660178 4.364662    Angstrom
 C2    2.766039 7.100927 4.629857    Angstrom
 C3    2.985484 8.394268 4.893473    Angstrom
 C4    1.901577 9.292141 4.906101    Angstrom
 C5    2.051290 10.684037 5.250223    Angstrom
 C6    3.350303 12.401182 5.952673    Angstrom
 C7    2.245795 13.233509 5.894267    Angstrom
 C8    0.967484 11.545826 5.190238    Angstrom
 C9    -0.338777 11.030386 4.778240    Angstrom
 C10    -1.464803 11.863359 4.651956    Angstrom
 C11    -2.666301 11.321277 4.276264    Angstrom
 C12    -2.730222 9.963490 4.099468    Angstrom
 C13    -0.505913 9.682825 4.517781    Angstrom
 C14    0.642239 8.790848 4.568294    Angstrom
 C15    -4.346399 7.400193 7.619611    Angstrom
 C16    -3.276785 6.806535 6.771935    Angstrom
 C17    -2.251270 6.048867 7.393880    Angstrom
 C18    -1.233590 5.430695 6.715108    Angstrom
 C19    -0.155623 4.729242 7.521742    Angstrom
 C20    0.927384 3.749131 1.406479    Angstrom
 C21    0.175520 4.994924 1.647995    Angstrom
 C22    0.356855 6.072584 0.762435    Angstrom
 C23    -0.284800 7.290509 0.868197    Angstrom
 C24    -4.281508 4.595739 2.487779    Angstrom
 C25    -4.964965 5.584999 1.815321    Angstrom
 C26    -4.761816 6.945822 1.981067    Angstrom
 C27    0.041489 8.375533 -0.140490    Angstrom
 C28    -5.693737 7.931915 1.340180    Angstrom
 C29    -4.647188 3.145081 2.269940    Angstrom
End of Basis Set

Basis Set
H.ANO-RCC-MB.
 H1    1.346940 5.752010 4.217858    Angstrom
 H2    3.475639 6.500065 4.623543    Angstrom
 H3    3.847910 8.696867 5.068691    Angstrom
 H4    4.165405 12.756710 6.225760    Angstrom
 H5    2.358308 14.122513 6.142098    Angstrom
 H6    -1.394598 12.774861 4.820860    Angstrom
 H7    -3.415253 11.856941 4.145245    Angstrom
 H8    -3.561515 9.600431 3.895836    Angstrom
 H9    -4.641149 8.227371 7.231290    Angstrom
 H10    -4.002168 7.566121 8.500436    Angstrom
 H11    -5.085748 6.790475 7.674860    Angstrom
 H12    -2.270563 5.967468 8.318904    Angstrom
 H13    -0.188864 3.786013 7.346524    Angstrom
 H14    -0.302561 4.886871 8.456237    Angstrom
 H15    0.705450 5.071298 7.270754    Angstrom
 H16    1.691684 3.717958 1.987381    Angstrom
 H17    1.219775 3.724014 0.492504    Angstrom
 H18    0.361354 2.993421 1.581697    Angstrom
 H19    0.949593 5.956502 0.055249    Angstrom
 H20    -5.612968 5.319249 1.202847    Angstrom
 H21    -0.756733 8.623106 -0.612473    Angstrom
 H22    0.692854 8.046970 -0.764013    Angstrom
 H23    0.393259 9.141928 0.317286    Angstrom
 H24    -5.797939 8.693726 1.916347    Angstrom
 H25    -6.548607 7.518608 1.198112    Angstrom
 H26    -5.330707 8.214750 0.498819    Angstrom
 H27    -4.736862 2.975480 1.329130    Angstrom
 H28    -5.478842 2.955237 2.710353    Angstrom
 H29    -3.957364 2.583573 2.631426    Angstrom
End of Basis Set

&SEWARD
HIGH Cholesky

&RASSCF
SYMM
1
CIMX
200
charge
0
Spin
6
ciroot
21 21 1
Nactel
9 0 0
Ras2
7
ORBL
nocore
ORBA
compact

>>> COPY $Project.JobIph JOB001

&RASSI
spinorbit
nrofjobiphs=1 21
1 2 3 4 5 6 7 8 9 10 11 12 13 14 15 16 17 18 19 20 21
mees
PROP
3
'ANGMOM' 1
'ANGMOM' 2
'ANGMOM' 3

&SINGLE_ANISO
MLTP
8
2 2 2 2  2 2 2 2
CRYS
Dy
XFIE
0.5
TINT
0 300 301
HINT
0 5 51
TMAG
3 2.0 4.0 6.0
UBAR

>>> COPY $Project.aniso $CurrDir/806774.aniso

-- ----------------------------------

--- Start Module: gateway at Sun Nov 24 04:36:13 2024 ---

()()()()()()()()()()()()()()()()()()()()()()()()()()()()()()()()()()()()()()()()()()()()()()()()()()

                                              &GATEWAY

                                   only a single process is used
                       available to each process: 32 GB of memory, 1 thread?
                                            pid: 427148
()()()()()()()()()()()()()()()()()()()()()()()()()()()()()()()()()()()()()()()()()()()()()()()()()()


++    Symmetry information:
      ---------------------

                    Character Table for C1 

                             E  
                    a        1  x, y, xy, Rz, z, xz, Ry, yz, Rx, I
--


++    Basis set information:
      ----------------------


      Basis set label: DY.ANO-RCC...8S7P5D3F2G1H.

      Electronic valence basis set:
      ------------------
      Associated Effective Charge  66.000000 au
      Associated Actual Charge     66.000000 au
      Nuclear Model: Point charge

      Shell  nPrim  nBasis  Cartesian Spherical Contaminant
         s      25       8        X                  
         p      22       7        X                  
         d      15       5                 X         
         f      11       3                 X         
         g       4       2                 X         
         h       2       1                 X         


      Basis set label: O.ANO-RCC...4S3P2D1F.

      Electronic valence basis set:
      ------------------
      Associated Effective Charge   8.000000 au
      Associated Actual Charge      8.000000 au
      Nuclear Model: Point charge

      Shell  nPrim  nBasis  Cartesian Spherical Contaminant
         s      14       4        X                  
         p       9       3        X                  
         d       4       2                 X         
         f       3       1                 X         


      Basis set label: N.ANO-RCC...4S3P2D1F.

      Electronic valence basis set:
      ------------------
      Associated Effective Charge   7.000000 au
      Associated Actual Charge      7.000000 au
      Nuclear Model: Point charge

      Shell  nPrim  nBasis  Cartesian Spherical Contaminant
         s      14       4        X                  
         p       9       3        X                  
         d       4       2                 X         
         f       3       1                 X         


      Basis set label: C.ANO-RCC...3S2P1D.

      Electronic valence basis set:
      ------------------
      Associated Effective Charge   6.000000 au
      Associated Actual Charge      6.000000 au
      Nuclear Model: Point charge

      Shell  nPrim  nBasis  Cartesian Spherical Contaminant
         s      14       3        X                  
         p       9       2        X                  
         d       4       1                 X         


      Basis set label: H.ANO-RCC...1S.

      Electronic valence basis set:
      ------------------
      Associated Effective Charge   1.000000 au
      Associated Actual Charge      1.000000 au
      Nuclear Model: Point charge

      Shell  nPrim  nBasis  Cartesian Spherical Contaminant
         s       8       1        X                  
--


++    Molecular structure info:
      -------------------------

                    ************************************************ 
                    **** Cartesian Coordinates / Bohr, Angstrom **** 
                    ************************************************ 

     Center  Label                x              y              z                     x              y              z
        1      DY1             -3.632777      12.457037       6.951900             -1.922383       6.591980       3.678787
        2      O1              -2.158984      14.350654       3.293241             -1.142485       7.594039       1.742708
        3      O2              -1.060412       9.516307       4.993554             -0.561146       5.035813       2.642475
        4      O3              -6.247094       9.065003       6.210623             -3.305820       4.796993       3.286520
        5      O4              -7.245119      14.078856       5.035317             -3.833952       7.450210       2.664575
        6      O5              -6.295870      13.271777      10.461409             -3.331631       7.023122       5.535939
        7      O6              -2.075892      10.169130      10.333138             -1.098515       5.381272       5.468061
        8      N1               0.823879      14.143428       8.143610              0.435978       7.484380       4.309413
        9      N2              -3.220921      17.228161       7.925852             -1.704438       9.116750       4.194180
       10      N3               6.218297      21.023672      10.652320              3.290581      11.125248       5.636965
       11      N4               2.006708      24.291348      10.416664              1.061904      12.854428       5.512261
       12      C1               2.805397      12.585912       8.248016              1.484552       6.660178       4.364662
       13      C2               5.227056      13.418807       8.749162              2.766039       7.100927       4.629857
       14      C3               5.641747      15.862868       9.247324              2.985484       8.394268       4.893473
       15      C4               3.593460      17.559602       9.271187              1.901577       9.292141       4.906101
       16      C5               3.876376      20.189904       9.921484              2.051290      10.684037       5.250223
       17      C6               6.331155      23.434838      11.248922              3.350303      12.401182       5.952673
       18      C7               4.243937      25.007708      11.138550              2.245795      13.233509       5.894267
       19      C8               1.828280      21.818449       9.808128              0.967484      11.545826       5.190238
       20      C9              -0.640196      20.844409       9.029565             -0.338777      11.030386       4.778240
       21      C10             -2.768076      22.418499       8.790923             -1.464803      11.863359       4.651956
       22      C11             -5.038579      21.394113       8.080968             -2.666301      11.321277       4.276264
       23      C12             -5.159372      18.828267       7.746872             -2.730222       9.963490       4.099468
       24      C13             -0.956037      18.297887       8.537369             -0.505913       9.682825       4.517781
       25      C14              1.213656      16.612295       8.632825              0.642239       8.790848       4.568294
       26      C15             -8.213504      13.984338      14.398978             -4.346399       7.400193       7.619611
       27      C16             -6.192226      12.862487      12.797102             -3.276785       6.806535       6.771935
       28      C17             -4.254284      11.430702      13.972408             -2.251270       6.048867       7.393880
       29      C18             -2.331147      10.262526      12.689715             -1.233590       5.430695       6.715108
       30      C19             -0.294085       8.936972      14.214032             -0.155623       4.729242       7.521742
       31      C20              1.752502       7.084831       2.657860              0.927384       3.749131       1.406479
       32      C21              0.331685       9.439038       3.114259              0.175520       4.994924       1.647995
       33      C22              0.674358      11.475521       1.440793              0.356855       6.072584       0.762435
       34      C23             -0.538194      13.777065       1.640655             -0.284800       7.290509       0.868197
       35      C24             -8.090878       8.684688       4.701221             -4.281508       4.595739       2.487779
       36      C25             -9.382424      10.554119       3.430460             -4.964965       5.584999       1.815321
       37      C26             -8.998528      13.125701       3.743674             -4.761816       6.945822       1.981067
       38      C27              0.078403      15.827464      -0.265488              0.041489       8.375533      -0.140490
       39      C28            -10.759604      14.989147       2.532573             -5.693737       7.931915       1.340180
       40      C29             -8.781913       5.943342       4.289565             -4.647188       3.145081       2.269940
       41      H1               2.545348      10.869724       7.970596              1.346940       5.752010       4.217858
       42      H2               6.568006      12.283343       8.737230              3.475639       6.500065       4.623543
       43      H3               7.271496      16.434697       9.578438              3.847910       8.696867       5.068691
       44      H4               7.871475      24.106688      11.764981              4.165405      12.756710       6.225760
       45      H5               4.456556      26.687682      11.606883              2.358308      14.122513       6.142098
       46      H6              -2.635408      24.140989       9.110105             -1.394598      12.774861       4.820860
       47      H7              -6.453893      22.406371       7.833378             -3.415253      11.856941       4.145245
       48      H8              -6.730288      18.142185       7.362063             -3.561515       9.600431       3.895836
       49      H9              -8.770501      15.547478      13.665158             -4.641149       8.227371       7.231290
       50      H10             -7.563001      14.297897      16.063496             -4.002168       7.566121       8.500436
       51      H11             -9.610671      12.832138      14.503383             -5.085748       6.790475       7.674860
       52      H12             -4.290742      11.276880      15.720450             -2.270563       5.967468       8.318904
       53      H13             -0.356901       7.154528      13.882918             -0.188864       3.786013       7.346524
       54      H14             -0.571757       9.234848      15.979972             -0.302561       4.886871       8.456237
       55      H15              1.333107       9.583364      13.739734              0.705450       5.071298       7.270754
       56      H16              3.196819       7.025922       3.755606              1.691684       3.717958       1.987381
       57      H17              2.305041       7.037367       0.930698              1.219775       3.724014       0.492504
       58      H18              0.682860       5.656746       2.988974              0.361354       2.993421       1.581697
       59      H19              1.794471      11.256157       0.104405              0.949593       5.956502       0.055249
       60      H20            -10.606972      10.051924       2.273051             -5.612968       5.319249       1.202847
       61      H21             -1.430018      16.295309      -1.157406             -0.756733       8.623106      -0.612473
       62      H22              1.309304      15.206569      -1.443775              0.692854       8.046970      -0.764013
       63      H23              0.743152      17.275740       0.599584              0.393259       9.141928       0.317286
       64      H24            -10.956517      16.428761       3.621371             -5.797939       8.693726       1.916347
       65      H25            -12.375074      14.208110       2.264104             -6.548607       7.518608       1.198112
       66      H26            -10.073576      15.523628       0.942631             -5.330707       8.214750       0.498819
       67      H27             -8.951372       5.622842       2.511692             -4.736862       2.975480       1.329130
       68      H28            -10.353511       5.584589       5.121825             -5.478842       2.955237       2.710353
       69      H29             -7.478334       4.882245       4.972674             -3.957364       2.583573       2.631426

                    ************************************************* 
                    **** InterNuclear Distances / Bohr, Angstrom **** 
                    ************************************************* 

     Atom centers         Bohr        Angstrom
   52 H12      28 C17     1.755176        0.928799
   46 H6       21 C10     1.756829        0.929674
   48 H8       23 C12     1.756862        0.929691
   45 H5       18 C7      1.756945        0.929735
   42 H2       13 C2      1.757148        0.929843
   59 H19      33 C22     1.757471        0.930014
   47 H7       22 C11     1.757578        0.930070
   41 H1       12 C1      1.757809        0.930192
   44 H4       17 C6      1.757921        0.930252
   60 H20      36 C25     1.758213        0.930406
   43 H3       14 C3      1.758609        0.930616
   66 H26      39 C28     1.812241        0.958997
   54 H14      30 C19     1.812284        0.959020
   63 H23      38 C27     1.813214        0.959511
   62 H22      38 C27     1.813557        0.959693
   61 H21      38 C27     1.813762        0.959801
   51 H11      26 C15     1.813984        0.959919
   55 H15      30 C19   
   53 H13      30 C19     1.814013        0.959934
   57 H17      31 C20   
   68 H28      40 C29     1.814189        0.960027
   65 H25      39 C28     1.814342        0.960109
   69 H29      40 C29   
   49 H9       26 C15     1.814412        0.960146
   50 H10      26 C15   
   67 H27      40 C29     1.814461        0.960172
   58 H18      31 C20     1.814717        0.960307
   56 H16      31 C20     1.815095        0.960507
   64 H24      39 C28     1.815694        0.960824
   32 C21       3 O2      2.340011        1.238281
   29 C18       7 O6      2.372200        1.255314
   27 C16       6 O5      2.373547        1.256027
   37 C26       5 O4      2.377244        1.257983
   34 C23       2 O1      2.384744        1.261952
   35 C24       4 O3      2.412979        1.276894
   18 C7       11 N4      2.457537        1.300473
   17 C6       10 N3      2.486441        1.315768
   23 C12       9 N2      2.519914        1.333481
   12 C1        8 N1      2.522532        1.334867
   14 C3       13 C2      2.528550        1.338051
   25 C14       8 N1      2.546872        1.347747
   19 C8       11 N4      2.552917        1.350945
   24 C13       9 N2      2.578365        1.364412
   29 C18      28 C17     2.590056        1.370599
   22 C11      21 C10     2.590093        1.370618
   23 C12      22 C11     2.590323        1.370740
   16 C5       10 N3      2.591116        1.371160
   36 C25      35 C24     2.603401        1.377661
   34 C23      33 C22     2.609087        1.380669
   13 C2       12 C1      2.609463        1.380868
   24 C13      20 C9      2.612811        1.382640
   18 C7       17 C6      2.615832        1.384239
   37 C26      36 C25     2.618877        1.385850
   19 C8       16 C5      2.619104        1.385970
   25 C14      15 C4      2.639766        1.396904
   21 C10      20 C9      2.657553        1.406317
   33 C22      32 C21     2.658039        1.406574
   15 C4       14 C3      2.659879        1.407547
   28 C17      27 C16     2.680853        1.418646
   16 C5       15 C4      2.724228        1.441599
   25 C14      24 C13     2.749164        1.454795
   20 C9       19 C8      2.765554        1.463468
   32 C21      31 C20     2.787349        1.475002
   27 C16      26 C15     2.812493        1.488307
   39 C28      37 C26     2.835592        1.500531
   40 C29      35 C24     2.856916        1.511815
   38 C27      34 C23     2.866654        1.516968
   30 C19      29 C18     2.868843        1.518126
   55 H15      54 H14     2.961189        1.566994
   63 H23      61 H21     2.961575        1.567198
   62 H22      61 H21     2.961629        1.567227
   50 H10      49 H9      2.961677        1.567252
   54 H14      53 H13   
   66 H26      65 H25     2.962054        1.567452
   58 H18      57 H17     2.962108        1.567480
   66 H26      64 H24     2.962178        1.567517
   69 H29      67 H27     2.962222        1.567540
   51 H11      50 H10     2.962322        1.567593
   57 H17      56 H16     2.962348        1.567607
   55 H15      53 H13     2.962411        1.567640
   63 H23      62 H22     2.962653        1.567768
   68 H28      67 H27     2.963149        1.568031
   51 H11      49 H9      2.963373        1.568149
   69 H29      68 H28     2.963473        1.568202
   58 H18      56 H16     2.963505        1.568219
   65 H25      64 H24     2.964080        1.568524
   45 H5       11 N4      3.627781        1.919739
   48 H8        9 N2      3.670007        1.942084
   44 H4       10 N3      3.670967        1.942592
   41 H1        8 N1      3.702774        1.959423
   42 H2       14 C3      3.732445        1.975125
   48 H8       22 C11     3.735470        1.976726
   43 H3       13 C2      3.736713        1.977383
   52 H12      29 C18     3.748904        1.983835
   60 H20      35 C24     3.754474        1.986782
   59 H19      34 C23     3.762494        1.991026
   60 H20      37 C26     3.768014        1.993947
   45 H5       17 C6      3.771373        1.995725
   41 H1       13 C2      3.780946        2.000790
   44 H4       18 C7      3.789892        2.005524
   46 H6       22 C11     3.792054        2.006669
   57 H17      32 C21     3.798697        2.010184
   56 H16      32 C21     3.800454        2.011114
   58 H18      32 C21     3.800626        2.011205
   47 H7       23 C12     3.806060        2.014080
   42 H2       12 C1      3.806325        2.014220
   59 H19      32 C21     3.808003        2.015108
   47 H7       21 C10     3.808186        2.015205
   51 H11      27 C16     3.820743        2.021850
   50 H10      27 C16     3.822140        2.022589
   49 H9       27 C16     3.822328        2.022689
   52 H12      27 C16     3.830894        2.027222
   66 H26      37 C26     3.840784        2.032455
   64 H24      37 C26     3.841729        2.032955
   65 H25      37 C26     3.842109        2.033156
   46 H6       20 C9      3.854192        2.039551
   43 H3       15 C4      3.858467        2.041813
   68 H28      35 C24     3.860963        2.043134
   69 H29      35 C24     3.861019        2.043163
   67 H27      35 C24     3.861268        2.043295
   61 H21      34 C23     3.868597        2.047173
   63 H23      34 C23     3.868643        2.047198
   62 H22      34 C23     3.869165        2.047474
   54 H14      29 C18     3.870060        2.047948
   53 H13      29 C18     3.870534        2.048199
   55 H15      29 C18     3.871765        2.048850
   19 C8       18 C7      4.216254        2.231145
   54 H14      52 H12     4.250658        2.249351
   62 H22      59 H19     4.270598        2.259903
   17 C6       16 C5      4.279910        2.264831
   45 H5       44 H4      4.283479        2.266719
   43 H3       42 H2      4.293748        2.272153
   48 H8       47 H7      4.299048        2.274958
   24 C13      23 C12     4.309781        2.280638
   59 H19      57 H17     4.329161        2.290893
   42 H2       41 H1      4.332185        2.292493
    4 O3        1 DY1     4.346267        2.299946
   25 C14      12 C1      4.346663        2.300155
    7 O6        1 DY1     4.369345        2.312158
    3 O2        1 DY1     4.370363        2.312696
    2 O1        1 DY1     4.375344        2.315333
   47 H7       46 H6      4.384034        2.319931
   31 C20       3 O2      4.390903        2.323566
    5 O4        1 DY1     4.399159        2.327935
   39 C28       5 O4      4.409530        2.333423
   33 C22       3 O2      4.412488        2.334988
   36 C25       5 O4      4.423507        2.340819
   28 C17       7 O6      4.425070        2.341646
   26 C15       6 O5      4.437287        2.348111
   23 C12      21 C10     4.438254        2.348623
   33 C22       2 O1      4.441371        2.350273
   30 C19       7 O6      4.444592        2.351977
   36 C25       4 O3      4.447141        2.353326
   14 C3       12 C1      4.447689        2.353616
   38 C27       2 O1      4.455493        2.357745
   40 C29       4 O3      4.456516        2.358287
   28 C17       6 O5      4.459232        2.359724
   52 H12      50 H10     4.466755        2.363705
   18 C7       10 N3      4.472925        2.366970
    6 O5        1 DY1     4.480236        2.370839
   15 C4       13 C2      4.481889        2.371713
   17 C6       11 N4      4.486325        2.374061
   13 C2        8 N1      4.503303        2.383045
   24 C13      21 C10     4.508572        2.385833
   65 H25      60 H20     4.516652        2.390109
   69 H29       4 O3      4.532541        2.398517
   25 C14       9 N2      4.532612        2.398555
   25 C14      14 C3      4.532907        2.398711
   22 C11      20 C9      4.532966        2.398742
   16 C5       11 N4      4.534613        2.399614
   24 C13       8 N1      4.536813        2.400778
   15 C4        8 N1      4.540071        2.402502
   19 C8       10 N3      4.540548        2.402755
   22 C11       9 N2      4.547867        2.406628
   15 C4       10 N3      4.560382        2.413250
   20 C9       11 N4      4.561966        2.414089
   20 C9        9 N2      4.577726        2.422428
   64 H24       5 O4      4.614734        2.442012
   37 C26      35 C24     4.632853        2.451600
   25 C14      20 C9      4.637343        2.453976
   19 C8       15 C4      4.641330        2.456086
   25 C14      16 C5      4.642198        2.456546
   49 H9        6 O5      4.643987        2.457492
   20 C9       16 C5      4.650088        2.460721
   29 C18      27 C16     4.656099        2.463902
   34 C23      32 C21     4.663333        2.467730
   24 C13      19 C8      4.664933        2.468576
   24 C13      15 C4      4.667063        2.469703
   33 C22      31 C20     4.682072        2.477646
   58 H18       3 O2      4.685462        2.479440
   30 C19      28 C17     4.686176        2.479818
   48 H8        5 O4      4.710567        2.492725
   38 C27      33 C22     4.712320        2.493653
   16 C5       14 C3      4.721681        2.498606
   40 C29      36 C25     4.728418        2.502171
   39 C28      36 C25     4.729937        2.502975
   28 C17      26 C15     4.730586        2.503318
   54 H14      28 C17     4.734246        2.505255
   67 H27      60 H20     4.734419        2.505347
   21 C10      19 C8      4.745657        2.511293
   57 H17      33 C22     4.755684        2.516600
   62 H22      33 C22     4.758636        2.518162
   46 H6       11 N4      4.824826        2.553188
   43 H3       10 N3      4.829197        2.555501
   50 H10      28 C17     4.851914        2.567522
   55 H15       7 O6      4.854822        2.569061
   65 H25      36 C25     4.864976        2.574434
   41 H1        3 O2      4.867856        2.575958
   52 H12      30 C19     4.870086        2.577138
    9 N2        1 DY1     4.886904        2.586038
   59 H19      31 C20     4.890998        2.588204
   59 H19      38 C27     4.896790        2.591269
   61 H21       2 O1      4.911347        2.598973
    8 N1        1 DY1     4.911810        2.599218
   63 H23       2 O1      4.922836        2.605052
   60 H20      40 C29     4.927232        2.607379
   52 H12      26 C15     4.946178        2.617405
   60 H20      39 C28     4.946395        2.617519
   53 H13       7 O6      4.964242        2.626964
   18 C7       16 C5      4.982729        2.636747
   19 C8       17 C6      4.996447        2.644006
   67 H27      36 C25     5.034623        2.664208
   43 H3       16 C5      5.074061        2.685078
   46 H6       19 C8      5.079954        2.688196
   56 H16       3 O2      5.085131        2.690935
    9 N2        8 N1      5.091503        2.694307
   23 C12      20 C9      5.112052        2.705182
   25 C14      13 C2      5.130232        2.714802
   15 C4       12 C1      5.138629        2.719245
   24 C13      22 C11     5.144129        2.722156
   66 H26       5 O4      5.180503        2.741404
   14 C3        8 N1      5.233212        2.769296
   41 H1        7 O6      5.237203        2.771408
    7 O6        6 O5      5.239378        2.772559
    3 O2        2 O1      5.241071        2.773456
    5 O4        4 O3      5.245581        2.775842
   51 H11       6 O5      5.245831        2.775974
   21 C10       9 N2      5.281386        2.794789
   68 H28      60 H20     5.304417        2.806976
   11 N4       10 N3      5.335797        2.823582
   68 H28      36 C25     5.338535        2.825031
    4 O3        3 O2      5.346644        2.829322
   20 C9       15 C4      5.363970        2.838491
   24 C13      16 C5      5.371007        2.842215
   25 C14      19 C8      5.372443        2.842974
   14 C3       10 N3      5.379621        2.846773
   21 C10      11 N4      5.380442        2.847208
    5 O4        2 O1      5.383073        2.848600
    8 N1        7 O6      5.384956        2.849596
   34 C23       3 O2      5.446899        2.882375
   29 C18       6 O5      5.453436        2.885834
   35 C24       5 O4      5.470282        2.894748
    7 O6        3 O2      5.474352        2.896902
   37 C26       4 O3      5.490491        2.905443
   68 H28       4 O3      5.491941        2.906210
   27 C16       7 O6      5.501772        2.911412
   32 C21       2 O1      5.509939        2.915734
   41 H1       32 C21     5.525502        2.923970
    9 N2        2 O1      5.555973        2.940094
   51 H11      28 C17     5.562090        2.943331
    6 O5        5 O4      5.567308        2.946093
   66 H26      36 C25     5.600268        2.963534
   56 H16      33 C22     5.614276        2.970947
    9 N2        6 O5      5.615811        2.971759
   66 H26      60 H20     5.656330        2.993201
--


            Nuclear Potential Energy           7130.14231203 au

--- Stop Module: gateway at Sun Nov 24 04:36:13 2024 /rc=_RC_ALL_IS_WELL_ ---
*** files: xmldump
    saved to directory /media/korden/5fb66ce1-8053-4a4f-9303-c4fa91c2cea8/home/korden/calc/orca/Artem/Dyacac4_3567_place/f806774

--- Start Module: seward at Sun Nov 24 04:36:13 2024 ---

()()()()()()()()()()()()()()()()()()()()()()()()()()()()()()()()()()()()()()()()()()()()()()()()()()

                                              &SEWARD

                                   only a single process is used
                       available to each process: 32 GB of memory, 1 thread?
                                            pid: 427151
()()()()()()()()()()()()()()()()()()()()()()()()()()()()()()()()()()()()()()()()()()()()()()()()()()

               SEWARD will generate:
                  Multipole Moment integrals up to order  2
                  Kinetic Energy integrals
                  Nuclear Attraction integrals (point charge)
                  One-Electron Hamiltonian integrals
                  Velocity integrals
                  Relativistic Douglas-Kroll integrals
                  Orbital angular momentum around (-3.6328 12.4570  6.9519 )
                  Velocity quadrupole around (-2.2109 14.2435  7.4978 )
                  Atomic mean-field integrals
                  Cholesky decomposed two-electron repulsion integrals
                   - CD Threshold:   0.10E-07

                   Integrals are discarded if absolute value <: 0.10E-39
                   Integral cutoff threshold is set to       <: 0.10E-39

            Nuclear Potential Energy           7130.14231203 au


      Basis set specifications :
      Symmetry species         a  
      Basis functions          839

      Cholesky vectors       11098


 Sorry, Molden does not know how to handle
 functions with angular momentum larger than g
--- Stop Module: seward at Sun Nov 24 09:45:31 2024 /rc=_RC_ALL_IS_WELL_ ---
*** files: 806774.GssOrb xmldump
    saved to directory /media/korden/5fb66ce1-8053-4a4f-9303-c4fa91c2cea8/home/korden/calc/orca/Artem/Dyacac4_3567_place/f806774
--- Module seward spent 5 hours 9 minutes 17 seconds ---

*** symbolic link created: INPORB -> 806774.GssOrb
--- Start Module: rasscf at Sun Nov 24 09:45:31 2024 ---

()()()()()()()()()()()()()()()()()()()()()()()()()()()()()()()()()()()()()()()()()()()()()()()()()()

                                              &RASSCF

                                   only a single process is used
                       available to each process: 32 GB of memory, 1 thread?
                                            pid: 427451
()()()()()()()()()()()()()()()()()()()()()()()()()()()()()()()()()()()()()()()()()()()()()()()()()()


      Header of the ONEINT file:
      --------------------------
      
      Integrals generated by Gateway/Seward, Sun Nov 24 04:36:13 2024


      OrdInt status: non-squared


      Cartesian coordinates in Angstrom:
      -----------------------------------------------------
      No.  Label        X            Y            Z        
      -----------------------------------------------------
       1   DY1       -1.92238300   6.59198000   3.67878700
       2   O1        -1.14248500   7.59403900   1.74270800
       3   O2        -0.56114600   5.03581300   2.64247500
       4   O3        -3.30582000   4.79699300   3.28652000
       5   O4        -3.83395200   7.45021000   2.66457500
       6   O5        -3.33163100   7.02312200   5.53593900
       7   O6        -1.09851500   5.38127200   5.46806100
       8   N1         0.43597800   7.48438000   4.30941300
       9   N2        -1.70443800   9.11675000   4.19418000
      10   N3         3.29058100  11.12524800   5.63696500
      11   N4         1.06190400  12.85442800   5.51226100
      12   C1         1.48455200   6.66017800   4.36466200
      13   C2         2.76603900   7.10092700   4.62985700
      14   C3         2.98548400   8.39426800   4.89347300
      15   C4         1.90157700   9.29214100   4.90610100
      16   C5         2.05129000  10.68403700   5.25022300
      17   C6         3.35030300  12.40118200   5.95267300
      18   C7         2.24579500  13.23350900   5.89426700
      19   C8         0.96748400  11.54582600   5.19023800
      20   C9        -0.33877700  11.03038600   4.77824000
      21   C10       -1.46480300  11.86335900   4.65195600
      22   C11       -2.66630100  11.32127700   4.27626400
      23   C12       -2.73022200   9.96349000   4.09946800
      24   C13       -0.50591300   9.68282500   4.51778100
      25   C14        0.64223900   8.79084800   4.56829400
      26   C15       -4.34639900   7.40019300   7.61961100
      27   C16       -3.27678500   6.80653500   6.77193500
      28   C17       -2.25127000   6.04886700   7.39388000
      29   C18       -1.23359000   5.43069500   6.71510800
      30   C19       -0.15562300   4.72924200   7.52174200
      31   C20        0.92738400   3.74913100   1.40647900
      32   C21        0.17552000   4.99492400   1.64799500
      33   C22        0.35685500   6.07258400   0.76243500
      34   C23       -0.28480000   7.29050900   0.86819700
      35   C24       -4.28150800   4.59573900   2.48777900
      36   C25       -4.96496500   5.58499900   1.81532100
      37   C26       -4.76181600   6.94582200   1.98106700
      38   C27        0.04148900   8.37553300  -0.14049000
      39   C28       -5.69373700   7.93191500   1.34018000
      40   C29       -4.64718800   3.14508100   2.26994000
      41   H1         1.34694000   5.75201000   4.21785800
      42   H2         3.47563900   6.50006500   4.62354300
      43   H3         3.84791000   8.69686700   5.06869100
      44   H4         4.16540500  12.75671000   6.22576000
      45   H5         2.35830800  14.12251300   6.14209800
      46   H6        -1.39459800  12.77486100   4.82086000
      47   H7        -3.41525300  11.85694100   4.14524500
      48   H8        -3.56151500   9.60043100   3.89583600
      49   H9        -4.64114900   8.22737100   7.23129000
      50   H10       -4.00216800   7.56612100   8.50043600
      51   H11       -5.08574800   6.79047500   7.67486000
      52   H12       -2.27056300   5.96746800   8.31890400
      53   H13       -0.18886400   3.78601300   7.34652400
      54   H14       -0.30256100   4.88687100   8.45623700
      55   H15        0.70545000   5.07129800   7.27075400
      56   H16        1.69168400   3.71795800   1.98738100
      57   H17        1.21977500   3.72401400   0.49250400
      58   H18        0.36135400   2.99342100   1.58169700
      59   H19        0.94959300   5.95650200   0.05524900
      60   H20       -5.61296800   5.31924900   1.20284700
      61   H21       -0.75673300   8.62310600  -0.61247300
      62   H22        0.69285400   8.04697000  -0.76401300
      63   H23        0.39325900   9.14192800   0.31728600
      64   H24       -5.79793900   8.69372600   1.91634700
      65   H25       -6.54860700   7.51860800   1.19811200
      66   H26       -5.33070700   8.21475000   0.49881900
      67   H27       -4.73686200   2.97548000   1.32913000
      68   H28       -5.47884200   2.95523700   2.71035300
      69   H29       -3.95736400   2.58357300   2.63142600
      -----------------------------------------------------
      Nuclear repulsion energy = 7130.14231203

++    Wave function specifications:
      -----------------------------

      Number of closed shell electrons         336
      Number of electrons in active shells       9
      Max number of holes in RAS1 space          0
      Max nr of electrons in RAS3 space          0
      Number of inactive orbitals              168
      Number of active orbitals                  7
      Number of secondary orbitals             664
      Spin quantum number                      2.5
      State symmetry                             1
--

++    Orbital specifications:
      -----------------------

      Symmetry species                           1
                                                 a
      Frozen orbitals                            0
      Inactive orbitals                        168
      Active orbitals                            7
      RAS1 orbitals                              0
      RAS2 orbitals                              7
      RAS3 orbitals                              0
      Secondary orbitals                       664
      Deleted orbitals                           0
      Number of basis functions                839
--

++    CI expansion specifications:
      ----------------------------

      Number of CSFs                            21
      Number of determinants                    21
      Number of root(s) required                21
      Root chosen for geometry opt.             21
      CI roots used                              1     2     3     4     5     6     7     8     9    10
                                                11    12    13    14    15    16    17    18    19    20
                                                21
      weights                                0.048 0.048 0.048 0.048 0.048 0.048 0.048 0.048 0.048 0.048
                                             0.048 0.048 0.048 0.048 0.048 0.048 0.048 0.048 0.048 0.048
                                             0.048
      highest root included in the CI           21
      max. size of the explicit Hamiltonian     21
--

++    Optimization specifications:
      ----------------------------

      RASSCF algorithm: LK Cholesky
      Maximum number of macro iterations       200
      Maximum number of SX iterations          100
      Threshold for RASSCF energy            0.100E-07
      Threshold for max MO rotation          0.100E+00
      Threshold for max BLB element          0.100E-03
      Level shift parameter                  0.500E+00
      Make Quasi-Newton update
--

      Orbitals from runfile: guessorb orbitals
      The MO-coefficients are taken from guessorb on runfile

      Total molecular charge    0.00

      ************************************************************************************************************************
      *                                                                                                                      *
      *                                            Wave function control section                                             *
      *                                                                                                                      *
      ************************************************************************************************************************


                                         RASSCF iterations: Energy and convergence statistics
                                         ----------------------------------------------------

      Iter CI   SX   CI       RASSCF       Energy    max ROT     max BLB   max BLB  Level Ln srch  Step   QN   Walltime
          iter iter root      energy       change     param      element    value   shift minimum  type update hh:mm:ss
 Nr of preliminary CI iterations:   1
      Total energies have been shifted. Add               -13000.00 au
        1   1   12    0  -911.46246830    0.00E+00  -0.68E-01  161 833 1  0.15E+01*  4.86   0.00    SX    NO    0:46:04
        2   1   13    0  -917.82338413   -0.64E+01* -0.12E+00*  27 839 1  0.51E+00*  3.18   0.00    SX    NO    0:18:38
        3   1   12    0  -921.74551242   -0.39E+01* -0.16E+00*  62 824 1 -0.43E+00*  2.12   0.00    SX    NO    0:20:07
        4   1   12    0  -924.58918314   -0.28E+01* -0.16E+00*  62 824 1 -0.29E+00*  1.23   0.00    SX    NO    0:20:55
        5   1   12    0  -926.46255487   -0.19E+01* -0.98E-01   63 836 1  0.21E+00*  0.72   2.09    QN   YES    0:22:13
        6   1   13    0  -927.27958977   -0.82E+00* -0.10E+00*  63 259 1 -0.14E+00*  0.59   2.50    QN   YES    0:22:24
        7   1   13    0  -927.93438719   -0.65E+00* -0.10E+00*  63 259 1 -0.11E+00*  0.54   2.50    QN   YES    0:22:44
        8   1   13    0  -928.45915554   -0.52E+00* -0.11E+00* 163 172 1  0.99E-01*  0.52   2.50    QN   YES    0:22:51
        9   1   13    0  -928.85012093   -0.39E+00*  0.12E+00* 163 169 1 -0.10E+00*  0.50   2.45    QN   YES    0:22:39
       10   1   14    0  -929.08426536   -0.23E+00*  0.77E-01   62 824 1  0.86E-01*  0.46   1.64    QN   YES    0:22:27
       11   1   13    0  -929.16962409   -0.85E-01*  0.13E+00* 161 175 1 -0.52E-01*  0.45   1.58    QN   YES    0:22:31
       12   1   13    0  -929.23858076   -0.69E-01*  0.22E+00* 158 175 1 -0.86E-01*  0.43   2.50    QN   YES    0:23:04
       13   1   13    0  -929.32160015   -0.83E-01*  0.15E+00*  62 824 1 -0.18E+00*  0.43   1.27    QN   YES    0:22:23
       14   1   13    0  -929.23750755    0.84E-01*  0.26E+00* 158 175 1 -0.11E+00*  0.44  -0.50    QN   YES    0:21:27
       15   1   13    0  -929.37341204   -0.14E+00* -0.13E+00*  62 824 1 -0.27E+00*  0.49   1.50    QN   YES    0:21:58
       16   1   13    0  -929.39993431   -0.27E-01*  0.92E-01   62 824 1 -0.39E+00*  0.64   0.87    QN   YES    0:20:42
       17   1   13    0  -929.36762994    0.32E-01*  0.65E-01   62 824 1 -0.34E+00*  0.62  -0.50    SX   YES    0:20:12
       18   1   13    0  -929.53675963   -0.17E+00*  0.19E+00* 158 175 1 -0.95E-01*  0.49   1.88    QN   YES    0:20:13
       19   1   13    0  -929.64104507   -0.10E+00*  0.50E-01  158 829 1  0.33E-01*  0.42   1.14    QN   YES    0:21:44
       20   1   13    0  -929.65658988   -0.16E-01*  0.16E-01   62 824 1  0.29E-01*  0.38   0.93    QN   YES    0:23:03
       21   1   12    0  -929.66017248   -0.36E-02*  0.78E-02  168 176 1  0.74E-02*  0.39   1.29    QN   YES    0:23:06
       22   1   11    0  -929.66115973   -0.99E-03* -0.49E-02  168 176 1  0.44E-02*  0.39   1.13    QN   YES    0:24:44
       23   1   11    0  -929.66134428   -0.18E-03* -0.32E-02  168 176 1  0.26E-02*  0.39   1.21    QN   YES    0:25:18
       24   1   10    0  -929.66140246   -0.58E-04* -0.25E-02  168 176 1  0.15E-02*  0.39   1.42    QN   YES    0:25:53
       25   1   10    0  -929.66142427   -0.22E-04* -0.13E-02  168 176 1  0.65E-03*  0.39   1.31    QN   YES    0:26:26
       26   1    9    0  -929.66143081   -0.65E-05* -0.67E-03  139 176 1  0.30E-03*  0.39   1.36    QN   YES    0:27:16
       27   1    8    0  -929.66143310   -0.23E-05* -0.26E-03  139 176 1  0.17E-03*  0.39   1.34    QN   YES    0:27:57
       28   1    8    0  -929.66143386   -0.76E-06*  0.12E-03  166 178 1 -0.88E-04   0.39   1.32    QN   YES    0:28:24
       29   1    8    0  -929.66143408   -0.22E-06*  0.52E-04  166 178 1 -0.41E-04   0.39   1.22    QN   YES    0:28:56
       30   1    7    0  -929.66143412   -0.45E-07* -0.23E-04  168 182 1  0.20E-04   0.39   1.18    QN   YES    0:29:30
       31   1    6    0  -929.66143413   -0.85E-08  -0.35E-04  168 182 1  0.11E-04   0.39   2.50    LS   YES    0:29:57
      Convergence after 31 iterations
       32   1    6    0  -929.66143413    0.78E-08  -0.35E-04  168 175 1 -0.22E-04   0.39   2.50    LS   YES    0:30:54

      ************************************************************************************************************************
                                                      Wave function printout:
                       occupation of active orbitals, and spin coupling of open shells (u,d: Spin up or down)
      ************************************************************************************************************************

      Note: transformation to natural orbitals
      has been made, which may change the order of the CSFs.

      printout of CI-coefficients larger than  0.05 for root  1
      energy=  -13929.696713
      conf/sym  1111111     Coeff  Weight
             1  22uuuuu   0.09517 0.00906
             2  2u2uuuu  -0.19399 0.03763
             3  u22uuuu  -0.15818 0.02502
             4  2uu2uuu   0.09376 0.00879
             5  2uuu2uu  -0.48908 0.23920
             6  2uuuu2u  -0.33775 0.11408
             7  2uuuuu2  -0.12452 0.01550
             9  u2uu2uu   0.17469 0.03052
            10  u2uuu2u  -0.25327 0.06414
            11  u2uuuu2   0.39083 0.15275
            12  uu22uuu   0.16316 0.02662
            13  uu2u2uu   0.16728 0.02798
            14  uu2uu2u   0.16075 0.02584
            15  uu2uuu2  -0.30225 0.09135
            16  uuu22uu   0.18608 0.03463
            19  uuu2uu2   0.17826 0.03178
            20  uuuu2u2   0.12705 0.01614
            21  uuuuu22  -0.21209 0.04498

      printout of CI-coefficients larger than  0.05 for root  2
      energy=  -13929.696696
      conf/sym  1111111     Coeff  Weight
             1  22uuuuu   0.12131 0.01472
             2  2u2uuuu   0.21335 0.04552
             3  u22uuuu  -0.09922 0.00984
             4  2uu2uuu   0.16140 0.02605
             5  2uuu2uu  -0.14103 0.01989
             6  2uuuu2u   0.29453 0.08675
             7  2uuuuu2  -0.46588 0.21704
             9  u2uu2uu  -0.39717 0.15774
            10  u2uuu2u  -0.29284 0.08575
            13  uu2u2uu   0.37022 0.13706
            15  uu2uuu2   0.22206 0.04931
            16  uuu22uu  -0.18629 0.03470
            17  uuu2u2u  -0.16840 0.02836
            18  uuuu22u  -0.15879 0.02521
            19  uuu2uu2   0.11722 0.01374
            20  uuuu2u2  -0.20212 0.04085

      printout of CI-coefficients larger than  0.05 for root  3
      energy=  -13929.696042
      conf/sym  1111111     Coeff  Weight
             3  u22uuuu   0.10019 0.01004
             4  2uu2uuu  -0.16693 0.02786
             5  2uuu2uu  -0.09111 0.00830
             6  2uuuu2u   0.09590 0.00920
             7  2uuuuu2  -0.06609 0.00437
             8  u2u2uuu   0.31507 0.09927
             9  u2uu2uu  -0.43374 0.18813
            10  u2uuu2u   0.05362 0.00287
            11  u2uuuu2  -0.11474 0.01317
            12  uu22uuu  -0.17018 0.02896
            13  uu2u2uu  -0.13744 0.01889
            14  uu2uu2u   0.07472 0.00558
            15  uu2uuu2  -0.50689 0.25694
            16  uuu22uu   0.19993 0.03997
            17  uuu2u2u   0.34745 0.12072
            18  uuuu22u  -0.10703 0.01145
            19  uuu2uu2   0.35332 0.12484
            20  uuuu2u2  -0.05792 0.00335
            21  uuuuu22   0.15439 0.02384

      printout of CI-coefficients larger than  0.05 for root  4
      energy=  -13929.695824
      conf/sym  1111111     Coeff  Weight
             1  22uuuuu  -0.13940 0.01943
             2  2u2uuuu  -0.19225 0.03696
             3  u22uuuu   0.21518 0.04630
             4  2uu2uuu   0.15352 0.02357
             5  2uuu2uu   0.09719 0.00945
             6  2uuuu2u  -0.14020 0.01966
             7  2uuuuu2   0.25082 0.06291
             8  u2u2uuu  -0.41495 0.17218
            10  u2uuu2u  -0.37128 0.13785
            11  u2uuuu2  -0.05514 0.00304
            12  uu22uuu  -0.31504 0.09925
            13  uu2u2uu   0.11680 0.01364
            14  uu2uu2u   0.18219 0.03319
            16  uuu22uu   0.21425 0.04590
            17  uuu2u2u  -0.13259 0.01758
            18  uuuu22u  -0.13019 0.01695
            19  uuu2uu2   0.10071 0.01014
            20  uuuu2u2  -0.23674 0.05604
            21  uuuuu22   0.41807 0.17478

      printout of CI-coefficients larger than  0.05 for root  5
      energy=  -13929.695751
      conf/sym  1111111     Coeff  Weight
             1  22uuuuu  -0.07714 0.00595
             2  2u2uuuu   0.05753 0.00331
             3  u22uuuu   0.28785 0.08286
             4  2uu2uuu  -0.34717 0.12053
             5  2uuu2uu   0.12619 0.01592
             6  2uuuu2u  -0.30604 0.09366
             7  2uuuuu2  -0.14187 0.02013
             8  u2u2uuu  -0.22419 0.05026
            10  u2uuu2u   0.30681 0.09413
            11  u2uuuu2  -0.22602 0.05109
            12  uu22uuu   0.29472 0.08686
            13  uu2u2uu   0.27097 0.07343
            14  uu2uu2u   0.22914 0.05251
            15  uu2uuu2  -0.05061 0.00256
            16  uuu22uu  -0.12099 0.01464
            17  uuu2u2u  -0.17038 0.02903
            18  uuuu22u   0.19252 0.03706
            19  uuu2uu2   0.37416 0.13999
            20  uuuu2u2  -0.12995 0.01689
            21  uuuuu22  -0.09407 0.00885

      printout of CI-coefficients larger than  0.05 for root  6
      energy=  -13929.695330
      conf/sym  1111111     Coeff  Weight
             2  2u2uuuu  -0.31698 0.10048
             3  u22uuuu  -0.34858 0.12151
             4  2uu2uuu  -0.08433 0.00711
             5  2uuu2uu  -0.34290 0.11758
             6  2uuuu2u   0.18469 0.03411
             7  2uuuuu2   0.14141 0.02000
             9  u2uu2uu   0.17591 0.03094
            10  u2uuu2u  -0.07182 0.00516
            11  u2uuuu2  -0.41905 0.17560
            12  uu22uuu  -0.16139 0.02605
            13  uu2u2uu   0.14330 0.02053
            15  uu2uuu2   0.09433 0.00890
            16  uuu22uu  -0.16278 0.02650
            17  uuu2u2u   0.14875 0.02213
            18  uuuu22u   0.47896 0.22940
            19  uuu2uu2   0.18564 0.03446
            20  uuuu2u2  -0.09283 0.00862
            21  uuuuu22   0.09045 0.00818

      printout of CI-coefficients larger than  0.05 for root  7
      energy=  -13929.695226
      conf/sym  1111111     Coeff  Weight
             2  2u2uuuu  -0.43837 0.19217
             3  u22uuuu   0.32040 0.10266
             4  2uu2uuu   0.18544 0.03439
             5  2uuu2uu   0.30259 0.09156
             7  2uuuuu2  -0.30197 0.09118
             8  u2u2uuu   0.28830 0.08311
             9  u2uu2uu   0.29178 0.08514
            10  u2uuu2u  -0.27445 0.07532
            11  u2uuuu2  -0.08260 0.00682
            12  uu22uuu   0.09730 0.00947
            13  uu2u2uu  -0.08198 0.00672
            14  uu2uu2u   0.18809 0.03538
            15  uu2uuu2  -0.07976 0.00636
            16  uuu22uu  -0.31955 0.10211
            17  uuu2u2u   0.22494 0.05060
            18  uuuu22u  -0.08008 0.00641
            20  uuuu2u2  -0.10773 0.01161
            21  uuuuu22  -0.08412 0.00708

      printout of CI-coefficients larger than  0.05 for root  8
      energy=  -13929.694823
      conf/sym  1111111     Coeff  Weight
             1  22uuuuu   0.13906 0.01934
             2  2u2uuuu  -0.19957 0.03983
             5  2uuu2uu   0.31034 0.09631
             6  2uuuu2u   0.31751 0.10082
             7  2uuuuu2   0.16645 0.02770
             8  u2u2uuu   0.35501 0.12603
            11  u2uuuu2   0.22457 0.05043
            12  uu22uuu   0.31500 0.09922
            13  uu2u2uu   0.26439 0.06990
            14  uu2uu2u   0.09150 0.00837
            16  uuu22uu   0.37752 0.14252
            17  uuu2u2u  -0.28691 0.08232
            18  uuuu22u   0.25154 0.06327
            19  uuu2uu2   0.11422 0.01305
            20  uuuu2u2   0.08179 0.00669
            21  uuuuu22   0.22386 0.05011

      printout of CI-coefficients larger than  0.05 for root  9
      energy=  -13929.694763
      conf/sym  1111111     Coeff  Weight
             2  2u2uuuu   0.09594 0.00920
             3  u22uuuu   0.27705 0.07676
             4  2uu2uuu   0.53987 0.29145
             6  2uuuu2u  -0.15456 0.02389
             7  2uuuuu2   0.24260 0.05886
             9  u2uu2uu  -0.32402 0.10499
            10  u2uuu2u  -0.14591 0.02129
            12  uu22uuu   0.21246 0.04514
            13  uu2u2uu  -0.13671 0.01869
            14  uu2uu2u  -0.26102 0.06813
            16  uuu22uu  -0.14273 0.02037
            17  uuu2u2u   0.08235 0.00678
            18  uuuu22u   0.39490 0.15595
            19  uuu2uu2   0.23365 0.05459
            20  uuuu2u2   0.14769 0.02181
            21  uuuuu22  -0.13202 0.01743

      printout of CI-coefficients larger than  0.05 for root 10
      energy=  -13929.694030
      conf/sym  1111111     Coeff  Weight
             1  22uuuuu  -0.10546 0.01112
             2  2u2uuuu  -0.34380 0.11820
             3  u22uuuu  -0.26799 0.07182
             4  2uu2uuu  -0.06423 0.00412
             6  2uuuu2u  -0.13450 0.01809
             7  2uuuuu2  -0.26594 0.07072
             8  u2u2uuu  -0.20988 0.04405
             9  u2uu2uu  -0.23243 0.05402
            10  u2uuu2u   0.14587 0.02128
            11  u2uuuu2   0.27412 0.07514
            12  uu22uuu   0.27138 0.07365
            13  uu2u2uu  -0.24460 0.05983
            14  uu2uu2u  -0.19258 0.03709
            16  uuu22uu  -0.25361 0.06432
            17  uuu2u2u   0.05429 0.00295
            21  uuuuu22   0.51921 0.26957

      printout of CI-coefficients larger than  0.05 for root 11
      energy=  -13929.694003
      conf/sym  1111111     Coeff  Weight
             2  2u2uuuu   0.22886 0.05238
             3  u22uuuu  -0.31469 0.09903
             4  2uu2uuu   0.19497 0.03801
             5  2uuu2uu   0.20431 0.04174
             6  2uuuu2u  -0.23553 0.05547
             7  2uuuuu2  -0.23148 0.05358
             8  u2u2uuu  -0.05278 0.00279
             9  u2uu2uu  -0.07556 0.00571
            10  u2uuu2u  -0.11098 0.01232
            11  u2uuuu2  -0.34819 0.12124
            12  uu22uuu   0.10841 0.01175
            13  uu2u2uu  -0.05209 0.00271
            14  uu2uu2u   0.42418 0.17993
            15  uu2uuu2  -0.17089 0.02920
            16  uuu22uu   0.17402 0.03028
            17  uuu2u2u   0.08281 0.00686
            18  uuuu22u   0.24416 0.05961
            19  uuu2uu2  -0.34490 0.11895
            20  uuuu2u2   0.23071 0.05323
            21  uuuuu22   0.15530 0.02412

      printout of CI-coefficients larger than  0.05 for root 12
      energy=  -13929.662168
      conf/sym  1111111     Coeff  Weight
             1  22uuuuu   0.15522 0.02409
             2  2u2uuuu   0.18102 0.03277
             3  u22uuuu  -0.13448 0.01808
             5  2uuu2uu   0.29267 0.08566
             6  2uuuu2u   0.25909 0.06713
             7  2uuuuu2  -0.29025 0.08425
             8  u2u2uuu  -0.32456 0.10534
             9  u2uu2uu   0.36394 0.13245
            10  u2uuu2u  -0.11863 0.01407
            12  uu22uuu  -0.12945 0.01676
            13  uu2u2uu  -0.18361 0.03371
            14  uu2uu2u  -0.32363 0.10474
            15  uu2uuu2  -0.29232 0.08545
            16  uuu22uu   0.10489 0.01100
            17  uuu2u2u  -0.12202 0.01489
            18  uuuu22u   0.08835 0.00781
            19  uuu2uu2   0.38411 0.14754
            20  uuuu2u2   0.10770 0.01160

      printout of CI-coefficients larger than  0.05 for root 13
      energy=  -13929.661954
      conf/sym  1111111     Coeff  Weight
             1  22uuuuu   0.39060 0.15257
             2  2u2uuuu  -0.26211 0.06870
             4  2uu2uuu   0.09832 0.00967
             6  2uuuu2u  -0.11190 0.01252
             7  2uuuuu2  -0.16954 0.02874
             9  u2uu2uu  -0.23129 0.05349
            10  u2uuu2u   0.24601 0.06052
            11  u2uuuu2   0.08144 0.00663
            12  uu22uuu  -0.38200 0.14592
            13  uu2u2uu  -0.21217 0.04502
            14  uu2uu2u   0.05488 0.00301
            15  uu2uuu2  -0.11693 0.01367
            17  uuu2u2u  -0.36176 0.13087
            18  uuuu22u   0.27680 0.07662
            19  uuu2uu2  -0.18028 0.03250
            20  uuuu2u2  -0.32762 0.10733
            21  uuuuu22  -0.22069 0.04871

      printout of CI-coefficients larger than  0.05 for root 14
      energy=  -13929.661353
      conf/sym  1111111     Coeff  Weight
             1  22uuuuu   0.09231 0.00852
             3  u22uuuu   0.33850 0.11458
             4  2uu2uuu  -0.35374 0.12513
             5  2uuu2uu  -0.15550 0.02418
             6  2uuuu2u   0.37989 0.14432
             8  u2u2uuu  -0.27932 0.07802
             9  u2uu2uu  -0.13627 0.01857
            10  u2uuu2u  -0.21279 0.04528
            11  u2uuuu2   0.17024 0.02898
            13  uu2u2uu  -0.08088 0.00654
            14  uu2uu2u   0.23902 0.05713
            15  uu2uuu2  -0.14800 0.02191
            16  uuu22uu  -0.22635 0.05124
            18  uuuu22u   0.23245 0.05403
            19  uuu2uu2  -0.22724 0.05164
            20  uuuu2u2   0.40607 0.16489

      printout of CI-coefficients larger than  0.05 for root 15
      energy=  -13929.661267
      conf/sym  1111111     Coeff  Weight
             1  22uuuuu   0.13870 0.01924
             2  2u2uuuu   0.08586 0.00737
             3  u22uuuu   0.33337 0.11113
             4  2uu2uuu   0.15527 0.02411
             5  2uuu2uu  -0.46256 0.21396
             6  2uuuu2u   0.07553 0.00570
             7  2uuuuu2  -0.10946 0.01198
             8  u2u2uuu   0.10431 0.01088
             9  u2uu2uu   0.24537 0.06021
            10  u2uuu2u   0.13100 0.01716
            11  u2uuuu2  -0.31706 0.10053
            12  uu22uuu   0.25977 0.06748
            13  uu2u2uu  -0.15658 0.02452
            14  uu2uu2u  -0.14388 0.02070
            15  uu2uuu2  -0.13477 0.01816
            16  uuu22uu   0.09093 0.00827
            17  uuu2u2u  -0.29352 0.08615
            18  uuuu22u  -0.10771 0.01160
            19  uuu2uu2  -0.16493 0.02720
            20  uuuu2u2  -0.06461 0.00417
            21  uuuuu22   0.38660 0.14946

      printout of CI-coefficients larger than  0.05 for root 16
      energy=  -13929.661213
      conf/sym  1111111     Coeff  Weight
             1  22uuuuu   0.35642 0.12704
             2  2u2uuuu   0.20862 0.04352
             3  u22uuuu  -0.22523 0.05073
             4  2uu2uuu  -0.11770 0.01385
             5  2uuu2uu   0.05203 0.00271
             6  2uuuu2u  -0.11476 0.01317
             7  2uuuuu2   0.35649 0.12708
             8  u2u2uuu   0.17378 0.03020
            10  u2uuu2u  -0.19883 0.03953
            12  uu22uuu   0.09757 0.00952
            13  uu2u2uu  -0.36505 0.13326
            14  uu2uu2u   0.29606 0.08765
            16  uuu22uu  -0.36916 0.13628
            17  uuu2u2u  -0.25661 0.06585
            18  uuuu22u  -0.18472 0.03412
            19  uuu2uu2   0.26155 0.06841
            20  uuuu2u2  -0.07960 0.00634
            21  uuuuu22   0.09731 0.00947

      printout of CI-coefficients larger than  0.05 for root 17
      energy=  -13929.660987
      conf/sym  1111111     Coeff  Weight
             2  2u2uuuu   0.14707 0.02163
             3  u22uuuu  -0.08433 0.00711
             4  2uu2uuu   0.39181 0.15352
             6  2uuuu2u   0.22764 0.05182
             7  2uuuuu2   0.19676 0.03872
             8  u2u2uuu  -0.14233 0.02026
             9  u2uu2uu   0.13022 0.01696
            10  u2uuu2u   0.40009 0.16007
            11  u2uuuu2   0.21798 0.04752
            13  uu2u2uu   0.29809 0.08886
            14  uu2uu2u   0.21073 0.04441
            15  uu2uuu2  -0.40122 0.16098
            16  uuu22uu  -0.35577 0.12658
            17  uuu2u2u   0.13028 0.01697
            19  uuu2uu2  -0.06458 0.00417
            20  uuuu2u2  -0.15912 0.02532
            21  uuuuu22   0.11295 0.01276

      printout of CI-coefficients larger than  0.05 for root 18
      energy=  -13929.660906
      conf/sym  1111111     Coeff  Weight
             2  2u2uuuu  -0.39983 0.15986
             3  u22uuuu  -0.18686 0.03492
             4  2uu2uuu   0.06590 0.00434
             5  2uuu2uu   0.05347 0.00286
             6  2uuuu2u   0.21893 0.04793
             7  2uuuuu2   0.20519 0.04210
             8  u2u2uuu  -0.28814 0.08303
             9  u2uu2uu  -0.22519 0.05071
            10  u2uuu2u   0.06921 0.00479
            11  u2uuuu2  -0.37294 0.13908
            12  uu22uuu   0.30698 0.09424
            13  uu2u2uu  -0.05221 0.00273
            15  uu2uuu2  -0.19634 0.03855
            16  uuu22uu   0.06498 0.00422
            17  uuu2u2u  -0.12964 0.01681
            18  uuuu22u  -0.38496 0.14819
            20  uuuu2u2   0.09162 0.00839
            21  uuuuu22  -0.33832 0.11446

      printout of CI-coefficients larger than  0.05 for root 19
      energy=  -13929.538012
      conf/sym  1111111     Coeff  Weight
             1  22uuuuu  -0.56696 0.32144
             2  2u2uuuu   0.12927 0.01671
             3  u22uuuu  -0.07948 0.00632
             5  2uuu2uu  -0.09912 0.00982
             6  2uuuu2u   0.25356 0.06429
            10  u2uuu2u  -0.12280 0.01508
            11  u2uuuu2   0.12928 0.01671
            12  uu22uuu   0.21619 0.04674
            13  uu2u2uu  -0.37696 0.14210
            14  uu2uu2u   0.19896 0.03959
            16  uuu22uu   0.12193 0.01487
            17  uuu2u2u  -0.11896 0.01415
            18  uuuu22u   0.21542 0.04640
            20  uuuu2u2  -0.45385 0.20598
            21  uuuuu22  -0.18710 0.03501

      printout of CI-coefficients larger than  0.05 for root 20
      energy=  -13929.537122
      conf/sym  1111111     Coeff  Weight
             1  22uuuuu   0.43421 0.18853
             2  2u2uuuu   0.10512 0.01105
             4  2uu2uuu  -0.22908 0.05248
             5  2uuu2uu   0.06970 0.00486
             7  2uuuuu2   0.12890 0.01662
             8  u2u2uuu  -0.18209 0.03316
            10  u2uuu2u  -0.21258 0.04519
            12  uu22uuu   0.32357 0.10470
            13  uu2u2uu   0.09038 0.00817
            14  uu2uu2u  -0.20988 0.04405
            15  uu2uuu2  -0.10275 0.01056
            16  uuu22uu   0.12916 0.01668
            17  uuu2u2u   0.40062 0.16050
            18  uuuu22u   0.08835 0.00781
            19  uuu2uu2  -0.25032 0.06266
            20  uuuu2u2  -0.47901 0.22945

      printout of CI-coefficients larger than  0.05 for root 21
      energy=  -13929.535934
      conf/sym  1111111     Coeff  Weight
             1  22uuuuu   0.27437 0.07528
             3  u22uuuu   0.09141 0.00836
             4  2uu2uuu   0.17837 0.03182
             5  2uuu2uu  -0.11870 0.01409
             6  2uuuu2u   0.18871 0.03561
             7  2uuuuu2  -0.08721 0.00760
             8  u2u2uuu  -0.23522 0.05533
             9  u2uu2uu   0.06908 0.00477
            10  u2uuu2u   0.27870 0.07767
            11  u2uuuu2   0.06891 0.00475
            12  uu22uuu   0.05493 0.00302
            13  uu2u2uu  -0.25634 0.06571
            14  uu2uu2u   0.38726 0.14997
            15  uu2uuu2   0.45006 0.20256
            16  uuu22uu   0.27074 0.07330
            17  uuu2u2u   0.35076 0.12304
            18  uuuu22u  -0.06872 0.00472
            19  uuu2uu2   0.24517 0.06011

      Natural orbitals and occupation numbers for root  1
      sym 1:   1.579250   1.579250   1.009580   1.009580   1.411169   1.000000   1.411169

      Natural orbitals and occupation numbers for root  2
      sym 1:   1.458117   1.539345   1.000000   1.002538   1.539345   1.002538   1.458117

      Natural orbitals and occupation numbers for root  3
      sym 1:   1.000000   1.287541   1.056317   1.656142   1.287541   1.056317   1.656142

      Natural orbitals and occupation numbers for root  4
      sym 1:   1.000000   1.658992   1.086154   1.658992   1.086154   1.254855   1.254855

      Natural orbitals and occupation numbers for root  5
      sym 1:   1.230774   1.000000   1.668546   1.668546   1.100681   1.230774   1.100681

      Natural orbitals and occupation numbers for root  6
      sym 1:   1.028438   1.611120   1.360442   1.000000   1.611120   1.028438   1.360442

      Natural orbitals and occupation numbers for root  7
      sym 1:   1.428323   1.428323   1.562224   1.000000   1.562224   1.009453   1.009453

      Natural orbitals and occupation numbers for root  8
      sym 1:   1.464773   1.000000   1.004410   1.530817   1.530817   1.464773   1.004410

      Natural orbitals and occupation numbers for root  9
      sym 1:   1.560746   1.012301   1.012301   1.426953   1.426953   1.560746   1.000000

      Natural orbitals and occupation numbers for root 10
      sym 1:   1.005562   1.452415   1.452415   1.000000   1.005562   1.542023   1.542023

      Natural orbitals and occupation numbers for root 11
      sym 1:   1.560141   1.016291   1.560141   1.000000   1.016291   1.423568   1.423568

      Natural orbitals and occupation numbers for root 12
      sym 1:   1.348864   1.000000   1.331467   1.348864   1.319669   1.331467   1.319669

      Natural orbitals and occupation numbers for root 13
      sym 1:   1.000000   1.310152   1.310152   1.366724   1.366724   1.323125   1.323125

      Natural orbitals and occupation numbers for root 14
      sym 1:   1.353149   1.310862   1.000000   1.310862   1.353149   1.335989   1.335989

      Natural orbitals and occupation numbers for root 15
      sym 1:   1.334744   1.346855   1.000000   1.334744   1.346855   1.318401   1.318401

      Natural orbitals and occupation numbers for root 16
      sym 1:   1.361097   1.000000   1.312983   1.325920   1.325920   1.312983   1.361097

      Natural orbitals and occupation numbers for root 17
      sym 1:   1.318312   1.000000   1.350585   1.331102   1.318312   1.331102   1.350585

      Natural orbitals and occupation numbers for root 18
      sym 1:   1.361349   1.342823   1.342823   1.000000   1.295828   1.295828   1.361349

      Natural orbitals and occupation numbers for root 19
      sym 1:   1.637958   1.637958   1.073075   1.000000   1.288967   1.073075   1.288967

      Natural orbitals and occupation numbers for root 20
      sym 1:   1.642585   1.285977   1.071438   1.642585   1.071438   1.000000   1.285977

      Natural orbitals and occupation numbers for root 21
      sym 1:   1.000000   1.069193   1.651854   1.278953   1.069193   1.651854   1.278953

      ************************************************************************************************************************
      *                                                                                                                      *
      *                                                    Final results                                                     *
      *                                                                                                                      *
      ************************************************************************************************************************


++    Wave function specifications:
      -----------------------------

      Number of closed shell electrons         336
      Number of electrons in active shells       9
      Max number of holes in RAS1 space          0
      Max nr of electrons in RAS3 space          0
      Number of inactive orbitals              168
      Number of active orbitals                  7
      Number of secondary orbitals             664
      Spin quantum number                      2.5
      State symmetry                             1
--

++    Orbital specifications:
      -----------------------

      Symmetry species                           1
                                                 a
      Frozen orbitals                            0
      Inactive orbitals                        168
      Active orbitals                            7
      RAS1 orbitals                              0
      RAS2 orbitals                              7
      RAS3 orbitals                              0
      Secondary orbitals                       664
      Deleted orbitals                           0
      Number of basis functions                839
--

++    CI expansion specifications:
      ----------------------------

      Number of CSFs                            21
      Number of determinants                    21
      Number of root(s) required                21
      CI roots used                              1     2     3     4     5     6     7     8     9    10
                                                11    12    13    14    15    16    17    18    19    20
                                                21
      weights                                0.048 0.048 0.048 0.048 0.048 0.048 0.048 0.048 0.048 0.048
                                             0.048 0.048 0.048 0.048 0.048 0.048 0.048 0.048 0.048 0.048
                                             0.048
      highest root included in the CI           21
      Root passed to geometry opt.              21
--

++    Final optimization conditions:
      ------------------------------

      Average CI energy                          -13929.66143412
      RASSCF energy for state 21                 -13929.53593397
      Super-CI energy                                -0.00000000
      RASSCF energy change                            0.00000001
      Max change in MO coefficients               0.230E-04
      Max non-diagonal density matrix element    -0.351E-04
      Maximum BLB matrix element                 -0.225E-04
      (orbital pair 168, 175 in symmetry   1)
      Norm of electronic gradient            0.382E+00
--


      Final state energy(ies):
      ------------------------

::    RASSCF root number  1 Total energy: -13929.69671255
::    RASSCF root number  2 Total energy: -13929.69669633
::    RASSCF root number  3 Total energy: -13929.69604171
::    RASSCF root number  4 Total energy: -13929.69582385
::    RASSCF root number  5 Total energy: -13929.69575124
::    RASSCF root number  6 Total energy: -13929.69532998
::    RASSCF root number  7 Total energy: -13929.69522576
::    RASSCF root number  8 Total energy: -13929.69482321
::    RASSCF root number  9 Total energy: -13929.69476332
::    RASSCF root number 10 Total energy: -13929.69403045
::    RASSCF root number 11 Total energy: -13929.69400266
::    RASSCF root number 12 Total energy: -13929.66216763
::    RASSCF root number 13 Total energy: -13929.66195395
::    RASSCF root number 14 Total energy: -13929.66135256
::    RASSCF root number 15 Total energy: -13929.66126666
::    RASSCF root number 16 Total energy: -13929.66121311
::    RASSCF root number 17 Total energy: -13929.66098717
::    RASSCF root number 18 Total energy: -13929.66090610
::    RASSCF root number 19 Total energy: -13929.53801223
::    RASSCF root number 20 Total energy: -13929.53712218
::    RASSCF root number 21 Total energy: -13929.53593397

++    Molecular orbitals:
      -------------------

      Pseudonatural active orbitals and approximate occupation numbers


      MOLECULAR ORBITALS FOR SYMMETRY SPECIES 1: a  

      INDEX  ENERGY  OCCUPATION COEFFICIENTS ...
          1-1983.9231    2.0000                                                                                                           
                 1 DY1    1s     ( 1.0000)
          2 -335.2371    2.0000                                                                                                           
                 2 DY1    2s     ( 1.0000)
          3 -298.0479    2.0000                                                                                                           
                 9 DY1    2px    ( 0.3884)  16 DY1    2py    ( 0.6604)  23 DY1    2pz    ( 0.6427)
          4 -298.0479    2.0000                                                                                                           
                 9 DY1    2px    (-0.8083)  16 DY1    2py    ( 0.5790)  23 DY1    2pz    (-0.1065)
          5 -298.0479    2.0000                                                                                                           
                 9 DY1    2px    (-0.4425)  16 DY1    2py    (-0.4781)  23 DY1    2pz    ( 0.7587)
          6  -76.7224    2.0000                                                                                                           
                 3 DY1    3s     ( 1.0000)
          7  -65.0007    2.0000                                                                                                           
                10 DY1    3px    ( 0.3317)  17 DY1    3py    ( 0.7213)  24 DY1    3pz    ( 0.6080)
          8  -65.0005    2.0000                                                                                                           
                10 DY1    3px    (-0.8316)  17 DY1    3py    ( 0.5279)  24 DY1    3pz    (-0.1726)
          9  -65.0005    2.0000                                                                                                           
                10 DY1    3px    (-0.4455)  17 DY1    3py    (-0.4484)  24 DY1    3pz    ( 0.7749)
         10  -49.5468    2.0000                                                                                                           
                30 DY1    3d2-   ( 0.6813)  35 DY1    3d1-   ( 0.4096)  40 DY1    3d0    (-0.4544)  45 DY1    3d1+   ( 0.3423)
                50 DY1    3d2+   (-0.2107)
         11  -49.5467    2.0000                                                                                                           
                30 DY1    3d2-   ( 0.1790)  35 DY1    3d1-   (-0.5360)  45 DY1    3d1+   ( 0.6323)  50 DY1    3d2+   ( 0.5297)
      
         12  -49.5465    2.0000                                                                                                           
                30 DY1    3d2-   ( 0.6533)  35 DY1    3d1-   (-0.1697)  40 DY1    3d0    ( 0.6837)  45 DY1    3d1+   (-0.2558)
                50 DY1    3d2+   (-0.1077)
         13  -49.5465    2.0000                                                                                                           
                30 DY1    3d2-   (-0.1549)  35 DY1    3d1-   ( 0.7008)  40 DY1    3d0    ( 0.5037)  45 DY1    3d1+   ( 0.3447)
                50 DY1    3d2+   ( 0.3350)
         14  -49.5465    2.0000                                                                                                           
                30 DY1    3d2-   ( 0.2304)  35 DY1    3d1-   ( 0.1579)  40 DY1    3d0    (-0.2685)  45 DY1    3d1+   (-0.5466)
                50 DY1    3d2+   ( 0.7424)
         15  -20.5205    2.0000                                                                                                           
               135 O2     1s     (-0.9998)
         16  -20.5178    2.0000                                                                                                           
               225 O5     1s     (-0.9998)
         17  -20.5134    2.0000                                                                                                           
               105 O1     1s     (-0.9998)
         18  -20.5109    2.0000                                                                                                           
               195 O4     1s     ( 0.9998)
         19  -20.5071    2.0000                                                                                                           
               255 O6     1s     ( 0.9998)
         20  -20.5050    2.0000                                                                                                           
               165 O3     1s     ( 0.9998)
[...]
   6      0.577350269190     0.577350269190     0.577350269190     0.006101255491
   7     -0.577350269190     0.577350269190     0.577350269190     0.006101255491
   8      0.577350269190    -0.577350269190     0.577350269190     0.006101255491
   9     -0.577350269190    -0.577350269190     0.577350269190     0.006101255491
  10      0.706896546391     0.706896546391     0.024383301669     0.003242209201
  11     -0.706896546391     0.706896546391     0.024383301669     0.003242209201
  12      0.706896546391    -0.706896546391     0.024383301669     0.003242209201
  13     -0.706896546391    -0.706896546391     0.024383301669     0.003242209201
  14      0.706896546391     0.024383301669     0.706896546391     0.003242209201
  15     -0.706896546391     0.024383301669     0.706896546391     0.003242209201
  16      0.706896546391    -0.024383301669     0.706896546391     0.003242209201
  17     -0.706896546391    -0.024383301669     0.706896546391     0.003242209201
  18      0.024383301669     0.706896546391     0.706896546391     0.003242209201
  19     -0.024383301669     0.706896546391     0.706896546391     0.003242209201
  20      0.024383301669    -0.706896546391     0.706896546391     0.003242209201
  21     -0.024383301669    -0.706896546391     0.706896546391     0.003242209201
  22      0.479468262571     0.479468262571     0.734996850588     0.006011402970
  23     -0.479468262571     0.479468262571     0.734996850588     0.006011402970
  24      0.479468262571    -0.479468262571     0.734996850588     0.006011402970
  25     -0.479468262571    -0.479468262571     0.734996850588     0.006011402970
  26      0.479468262571     0.734996850588     0.479468262571     0.006011402970
  27     -0.479468262571     0.734996850588     0.479468262571     0.006011402970
  28      0.479468262571    -0.734996850588     0.479468262571     0.006011402970
  29     -0.479468262571    -0.734996850588     0.479468262571     0.006011402970
  30      0.734996850588     0.479468262571     0.479468262571     0.006011402970
  31     -0.734996850588     0.479468262571     0.479468262571     0.006011402970
  32      0.734996850588    -0.479468262571     0.479468262571     0.006011402970
  33     -0.734996850588    -0.479468262571     0.479468262571     0.006011402970
  34      0.192753315488     0.192753315488     0.962129055136     0.005981985059
  35     -0.192753315488     0.192753315488     0.962129055136     0.005981985059
  36      0.192753315488    -0.192753315488     0.962129055136     0.005981985059
  37     -0.192753315488    -0.192753315488     0.962129055136     0.005981985059
  38      0.192753315488     0.962129055136     0.192753315488     0.005981985059
  39     -0.192753315488     0.962129055136     0.192753315488     0.005981985059
  40      0.192753315488    -0.962129055136     0.192753315488     0.005981985059
  41     -0.192753315488    -0.962129055136     0.192753315488     0.005981985059
  42      0.962129055136     0.192753315488     0.192753315488     0.005981985059
  43     -0.962129055136     0.192753315488     0.192753315488     0.005981985059
  44      0.962129055136    -0.192753315488     0.192753315488     0.005981985059
  45     -0.962129055136    -0.192753315488     0.192753315488     0.005981985059
  46      0.693035796133     0.693035796133     0.198501311223     0.005964341288
  47     -0.693035796133     0.693035796133     0.198501311223     0.005964341288
  48      0.693035796133    -0.693035796133     0.198501311223     0.005964341288
  49     -0.693035796133    -0.693035796133     0.198501311223     0.005964341288
  50      0.693035796133     0.198501311223     0.693035796133     0.005964341288
  51     -0.693035796133     0.198501311223     0.693035796133     0.005964341288
  52      0.693035796133    -0.198501311223     0.693035796133     0.005964341288
  53     -0.693035796133    -0.198501311223     0.693035796133     0.005964341288
  54      0.198501311223     0.693035796133     0.693035796133     0.005964341288
  55     -0.198501311223     0.693035796133     0.693035796133     0.005964341288
  56      0.198501311223    -0.693035796133     0.693035796133     0.005964341288
  57     -0.198501311223    -0.693035796133     0.693035796133     0.005964341288
  58      0.360830211552     0.360830211552     0.860001812128     0.005443128475
  59     -0.360830211552     0.360830211552     0.860001812128     0.005443128475
  60      0.360830211552    -0.360830211552     0.860001812128     0.005443128475
  61     -0.360830211552    -0.360830211552     0.860001812128     0.005443128475
  62      0.360830211552     0.860001812128     0.360830211552     0.005443128475
  63     -0.360830211552     0.860001812128     0.360830211552     0.005443128475
  64      0.360830211552    -0.860001812128     0.360830211552     0.005443128475
  65     -0.360830211552    -0.860001812128     0.360830211552     0.005443128475
  66      0.860001812128     0.360830211552     0.360830211552     0.005443128475
  67     -0.860001812128     0.360830211552     0.360830211552     0.005443128475
  68      0.860001812128    -0.360830211552     0.360830211552     0.005443128475
  69     -0.860001812128    -0.360830211552     0.360830211552     0.005443128475
  70      0.649848616150     0.649848616150     0.394199888606     0.006067027592
  71     -0.649848616150     0.649848616150     0.394199888606     0.006067027592
  72      0.649848616150    -0.649848616150     0.394199888606     0.006067027592
  73     -0.649848616150    -0.649848616150     0.394199888606     0.006067027592
  74      0.649848616150     0.394199888606     0.649848616150     0.006067027592
  75     -0.649848616150     0.394199888606     0.649848616150     0.006067027592
  76      0.649848616150    -0.394199888606     0.649848616150     0.006067027592
  77     -0.649848616150    -0.394199888606     0.649848616150     0.006067027592
  78      0.394199888606     0.649848616150     0.649848616150     0.006067027592
  79     -0.394199888606     0.649848616150     0.649848616150     0.006067027592
  80      0.394199888606    -0.649848616150     0.649848616150     0.006067027592
  81     -0.394199888606    -0.649848616150     0.649848616150     0.006067027592
  82      0.193294501323     0.981140782843     0.000000000000     0.003007949555
  83     -0.193294501323     0.981140782843     0.000000000000     0.003007949555
  84      0.193294501323    -0.981140782843     0.000000000000     0.003007949555
  85     -0.193294501323    -0.981140782843     0.000000000000     0.003007949555
  86      0.981140782843     0.193294501323     0.000000000000     0.003007949555
  87     -0.981140782843     0.193294501323     0.000000000000     0.003007949555
  88      0.981140782843    -0.193294501323     0.000000000000     0.003007949555
  89     -0.981140782843    -0.193294501323     0.000000000000     0.003007949555
  90      0.193294501323     0.000000000000     0.981140782843     0.006015899110
  91     -0.193294501323     0.000000000000     0.981140782843     0.006015899110
  92      0.981140782843     0.000000000000     0.193294501323     0.006015899110
  93     -0.981140782843     0.000000000000     0.193294501323     0.006015899110
  94      0.000000000000     0.193294501323     0.981140782843     0.006015899110
  95      0.000000000000    -0.193294501323     0.981140782843     0.006015899110
  96      0.000000000000     0.981140782843     0.193294501323     0.006015899110
  97      0.000000000000    -0.981140782843     0.193294501323     0.006015899110
  98      0.380049491990     0.924966152699     0.000000000000     0.002881964603
  99     -0.380049491990     0.924966152699     0.000000000000     0.002881964603
 100      0.380049491990    -0.924966152699     0.000000000000     0.002881964603
 101     -0.380049491990    -0.924966152699     0.000000000000     0.002881964603
 102      0.924966152699     0.380049491990     0.000000000000     0.002881964603
 103     -0.924966152699     0.380049491990     0.000000000000     0.002881964603
 104      0.924966152699    -0.380049491990     0.000000000000     0.002881964603
 105     -0.924966152699    -0.380049491990     0.000000000000     0.002881964603
 106      0.380049491990     0.000000000000     0.924966152699     0.005763929206
 107     -0.380049491990     0.000000000000     0.924966152699     0.005763929206
 108      0.924966152699     0.000000000000     0.380049491990     0.005763929206
 109     -0.924966152699     0.000000000000     0.380049491990     0.005763929206
 110      0.000000000000     0.380049491990     0.924966152699     0.005763929206
 111      0.000000000000    -0.380049491990     0.924966152699     0.005763929206
 112      0.000000000000     0.924966152699     0.380049491990     0.005763929206
 113      0.000000000000    -0.924966152699     0.380049491990     0.005763929206
 114      0.289955882550     0.793453785658     0.535123047718     0.005916715253
 115     -0.289955882550     0.793453785658     0.535123047718     0.005916715253
 116      0.289955882550    -0.793453785658     0.535123047718     0.005916715253
 117     -0.289955882550    -0.793453785658     0.535123047718     0.005916715253
 118      0.289955882550     0.535123047718     0.793453785658     0.005916715253
 119     -0.289955882550     0.535123047718     0.793453785658     0.005916715253
 120      0.289955882550    -0.535123047718     0.793453785658     0.005916715253
 121     -0.289955882550    -0.535123047718     0.793453785658     0.005916715253
 122      0.793453785658     0.289955882550     0.535123047718     0.005916715253
 123     -0.793453785658     0.289955882550     0.535123047718     0.005916715253
 124      0.793453785658    -0.289955882550     0.535123047718     0.005916715253
 125     -0.793453785658    -0.289955882550     0.535123047718     0.005916715253
 126      0.793453785658     0.535123047718     0.289955882550     0.005916715253
 127     -0.793453785658     0.535123047718     0.289955882550     0.005916715253
 128      0.793453785658    -0.535123047718     0.289955882550     0.005916715253
 129     -0.793453785658    -0.535123047718     0.289955882550     0.005916715253
 130      0.535123047718     0.289955882550     0.793453785658     0.005916715253
 131     -0.535123047718     0.289955882550     0.793453785658     0.005916715253
 132      0.535123047718    -0.289955882550     0.793453785658     0.005916715253
 133     -0.535123047718    -0.289955882550     0.793453785658     0.005916715253
 134      0.535123047718     0.793453785658     0.289955882550     0.005916715253
 135     -0.535123047718     0.793453785658     0.289955882550     0.005916715253
 136      0.535123047718    -0.793453785658     0.289955882550     0.005916715253
 137     -0.535123047718    -0.793453785658     0.289955882550     0.005916715253
 138      0.096841214551     0.828080150669     0.552182074349     0.006072040053
 139     -0.096841214551     0.828080150669     0.552182074349     0.006072040053
 140      0.096841214551    -0.828080150669     0.552182074349     0.006072040053
 141     -0.096841214551    -0.828080150669     0.552182074349     0.006072040053
 142      0.096841214551     0.552182074349     0.828080150669     0.006072040053
 143     -0.096841214551     0.552182074349     0.828080150669     0.006072040053
 144      0.096841214551    -0.552182074349     0.828080150669     0.006072040053
 145     -0.096841214551    -0.552182074349     0.828080150669     0.006072040053
 146      0.828080150669     0.096841214551     0.552182074349     0.006072040053
 147     -0.828080150669     0.096841214551     0.552182074349     0.006072040053
 148      0.828080150669    -0.096841214551     0.552182074349     0.006072040053
 149     -0.828080150669    -0.096841214551     0.552182074349     0.006072040053
 150      0.828080150669     0.552182074349     0.096841214551     0.006072040053
 151     -0.828080150669     0.552182074349     0.096841214551     0.006072040053
 152      0.828080150669    -0.552182074349     0.096841214551     0.006072040053
 153     -0.828080150669    -0.552182074349     0.096841214551     0.006072040053
 154      0.552182074349     0.096841214551     0.828080150669     0.006072040053
 155     -0.552182074349     0.096841214551     0.828080150669     0.006072040053
 156      0.552182074349    -0.096841214551     0.828080150669     0.006072040053
 157     -0.552182074349    -0.096841214551     0.828080150669     0.006072040053
 158      0.552182074349     0.828080150669     0.096841214551     0.006072040053
 159     -0.552182074349     0.828080150669     0.096841214551     0.006072040053
 160      0.552182074349    -0.828080150669     0.096841214551     0.006072040053
 161     -0.552182074349    -0.828080150669     0.096841214551     0.006072040053
 162      0.183343464704     0.907465826531     0.378009189874     0.005664374808
 163     -0.183343464704     0.907465826531     0.378009189874     0.005664374808
 164      0.183343464704    -0.907465826531     0.378009189874     0.005664374808
 165     -0.183343464704    -0.907465826531     0.378009189874     0.005664374808
 166      0.183343464704     0.378009189874     0.907465826531     0.005664374808
 167     -0.183343464704     0.378009189874     0.907465826531     0.005664374808
 168      0.183343464704    -0.378009189874     0.907465826531     0.005664374808
 169     -0.183343464704    -0.378009189874     0.907465826531     0.005664374808
 170      0.907465826531     0.183343464704     0.378009189874     0.005664374808
 171     -0.907465826531     0.183343464704     0.378009189874     0.005664374808
 172      0.907465826531    -0.183343464704     0.378009189874     0.005664374808
 173     -0.907465826531    -0.183343464704     0.378009189874     0.005664374808
 174      0.907465826531     0.378009189874     0.183343464704     0.005664374808
 175     -0.907465826531     0.378009189874     0.183343464704     0.005664374808
 176      0.907465826531    -0.378009189874     0.183343464704     0.005664374808
 177     -0.907465826531    -0.378009189874     0.183343464704     0.005664374808
 178      0.378009189874     0.183343464704     0.907465826531     0.005664374808
 179     -0.378009189874     0.183343464704     0.907465826531     0.005664374808
 180      0.378009189874    -0.183343464704     0.907465826531     0.005664374808
 181     -0.378009189874    -0.183343464704     0.907465826531     0.005664374808
 182      0.378009189874     0.907465826531     0.183343464704     0.005664374808
 183     -0.378009189874     0.907465826531     0.183343464704     0.005664374808
 184      0.378009189874    -0.907465826531     0.183343464704     0.005664374808
 185     -0.378009189874    -0.907465826531     0.183343464704     0.005664374808
  --------------------------------------------------------------------------------
  The cut-off energy for the exact diagonalization of the Zeeman Hamiltonian is:
  E =  1300.907094000 cm(-1).
  The exact diagonalization of the Zeeman Hamiltonian included  16 exchange states.
  The magnetization vector was not calculated.
  Computation of the Zeeman splitting was not requested.

                         HIGH-FIELD POWDER MAGNETIZATION
                              (Units: Bohr magneton)

-----------|---------------|---------------|---------------|---------------|
   H(T)    |STATISTICAL SUM|     2.000 K.  |     4.000 K.  |     6.000 K.  |
-----------|---------------|---------------|---------------|---------------|
  0.000100 |     1.9996987 |  0.0010476118 |  0.0005263767 |  0.0003526316 |
  0.100000 |     1.7397875 |  1.0263479406 |  0.5236592611 |  0.3518229914 |
  0.200000 |     1.5472856 |  1.9386111199 |  1.0314873707 |  0.6988579495 |
  0.300000 |     1.4048752 |  2.6749765169 |  1.5098566999 |  1.0366254177 |
  0.400000 |     1.2995218 |  3.2320804646 |  1.9488784365 |  1.3612183631 |
  0.500000 |     1.2215828 |  3.6390681183 |  2.3429411290 |  1.6694878519 |
  0.600000 |     1.1639244 |  3.9326779806 |  2.6903526951 |  1.9591353812 |
  0.700000 |     1.1212695 |  4.1449912885 |  2.9924474241 |  2.2287155898 |
  0.800000 |     1.0897139 |  4.3002958668 |  3.2525436700 |  2.4775672123 |
  0.900000 |     1.0663695 |  4.4158231852 |  3.4750158660 |  2.7056970069 |
  1.000000 |     1.0490996 |  4.5034561561 |  3.6645965485 |  2.9136414463 |
  1.100000 |     1.0363235 |  4.5713150785 |  3.8259180094 |  3.1023264716 |
  1.200000 |     1.0268718 |  4.6249585670 |  3.9632508749 |  3.2729392207 |
  1.300000 |     1.0198796 |  4.6682221060 |  4.0803831254 |  3.4268193929 |
  1.400000 |     1.0147068 |  4.7037830541 |  4.1805889822 |  3.5653729314 |
  1.500000 |     1.0108801 |  4.7335359544 |  4.2666495635 |  3.6900073449 |
  1.600000 |     1.0080490 |  4.7588411510 |  4.3408995388 |  3.8020860884 |
  1.700000 |     1.0059547 |  4.7806901160 |  4.4052837500 |  3.9028986282 |
  1.800000 |     1.0044053 |  4.7998162518 |  4.4614145880 |  3.9936427395 |
  1.900000 |     1.0032590 |  4.8167699179 |  4.5106253402 |  4.0754159102 |
  2.000000 |     1.0024110 |  4.8319698295 |  4.5540174124 |  4.1492132253 |
  2.100000 |     1.0017837 |  4.8457387151 |  4.5925008690 |  4.2159296412 |
  2.200000 |     1.0013196 |  4.8583283728 |  4.6268285484 |  4.2763650585 |
  2.300000 |     1.0009762 |  4.8699375084 |  4.6576243930 |  4.3312310197 |
  2.400000 |     1.0007222 |  4.8807245963 |  4.6854067683 |  4.3811582006 |
  2.500000 |     1.0005343 |  4.8908172697 |  4.7106075468 |  4.4267041231 |
  2.600000 |     1.0003953 |  4.9003192578 |  4.7335876703 |  4.4683607163 |
  2.700000 |     1.0002924 |  4.9093155718 |  4.7546498170 |  4.5065614912 |
  2.800000 |     1.0002164 |  4.9178764238 |  4.7740487036 |  4.5416881987 |
  2.900000 |     1.0001601 |  4.9260602188 |  4.7919994674 |  4.5740769074 |
  3.000000 |     1.0001184 |  4.9339158625 |  4.8086844908 |  4.6040234857 |
  3.100000 |     1.0000876 |  4.9414845581 |  4.8242589679 |  4.6317885009 |
  3.200000 |     1.0000648 |  4.9488012160 |  4.8388554518 |  4.6576015678 |
  3.300000 |     1.0000480 |  4.9558955716 |  4.8525875802 |  4.6816651879 |
  3.400000 |     1.0000355 |  4.9627930762 |  4.8655531329 |  4.7041581251 |
  3.500000 |     1.0000262 |  4.9695156136 |  4.8778365500 |  4.7252383652 |
  3.600000 |     1.0000194 |  4.9760820807 |  4.8895110112 |  4.7450457036 |
  3.700000 |     1.0000144 |  4.9825088594 |  4.9006401572 |  4.7637040061 |
  3.800000 |     1.0000106 |  4.9888102048 |  4.9112795210 |  4.7813231795 |
  3.900000 |     1.0000079 |  4.9949985643 |  4.9214777200 |  4.7980008901 |
  4.000000 |     1.0000058 |  5.0010848429 |  4.9312774530 |  4.8138240610 |
  4.100000 |     1.0000043 |  5.0070786237 |  4.9407163370 |  4.8288701759 |
  4.200000 |     1.0000032 |  5.0129883528 |  4.9498276108 |  4.8432084162 |
  4.300000 |     1.0000024 |  5.0188214953 |  4.9586407293 |  4.8569006518 |
  4.400000 |     1.0000017 |  5.0245846660 |  4.9671818674 |  4.8700023050 |
  4.500000 |     1.0000013 |  5.0302837416 |  4.9754743471 |  4.8825631057 |
  4.600000 |     1.0000010 |  5.0359239549 |  4.9835390027 |  4.8946277499 |
  4.700000 |     1.0000007 |  5.0415099767 |  4.9913944922 |  4.9062364764 |
  4.800000 |     1.0000005 |  5.0470459850 |  4.9990575646 |  4.9174255713 |
  4.900000 |     1.0000004 |  5.0525357248 |  5.0065432901 |  4.9282278102 |
  5.000000 |     1.0000003 |  5.0579825600 |  5.0138652582 |  4.9386728461 |
-----------|---------------|---------------|---------------|---------------|
--- Stop Module: single_aniso at Mon Nov 25 00:40:55 2024 /rc=_RC_ALL_IS_WELL_ ---
*** files: xmldump
    saved to directory /media/korden/5fb66ce1-8053-4a4f-9303-c4fa91c2cea8/home/korden/calc/orca/Artem/Dyacac4_3567_place/f806774
--- Module single_aniso spent 19 seconds ---

>>> COPY 806774.aniso /media/korden/5fb66ce1-8053-4a4f-9303-c4fa91c2cea8/home/korden/calc/orca/Artem/Dyacac4_3567_place/f806774/806774.aniso

    Timing: Wall=72281.78 User=71323.24 System=877.71