   This run of MOLCAS is using the pymolcas driver

                             OPE
                             OPE          NMOL  CASOP  ENMOLC A   SO
                 OPE        NMOLC        AS  OP EN  MO LC     AS  OP
                OPENM       OL CA        SO  PE NM  OL CA     SOP EN
                OP EN      MO   LC       AS  OP ENMOL  CASO   PENMOL
                OP  EN     MO   LC       AS  OP EN     MO     LC ASO
               OP   E  NMOL  C  AS       OP  EN MO     LC     AS  OP
               OP  E   NMO   LC AS        OPEN  MO     LCASOP EN   M
               O  PEN   MO  LCA  SO
            OPE   NMO   L   CAS    OP
        OPENMOL  CASOP     ENMOL   CASOPE
     OPENMOLCA   SOPENMOLCASOPEN   MOLCASOPE
    OPENMOLCAS   OP           EN   MOL    CAS
    OPENMOLCAS       OP  ENM        O     LCA
    OPENMOLCAS    OPEN  MOLCASO     P  E  NMO
    OPENMOLCAS     OP               E  N  MOL
    OPENMOLCA   SO           PENM   O  L  CAS    OPEN    MO    LCAS
    OPENMOLCA   SOP           ENM   O  L  CAS   OP  EN  MOLC  AS   O
    OPENMOLCA   SOPE           NM      O  LCA   S      OP  EN MO
    OPENMOLC                AS         O  PEN   M      OL  CA  SOPE
    OPENMO        LCASOPE  NMOL        C  ASO   P      ENMOLC     AS
    OPE     NMO      LCA  SO     P     E   NM   OL  CA SO  PE N   MO
          OPENMOLCA            SOPE   NMO        LCAS  O    P  ENMO
     OPENMOLCASOPENMOLCASOPENMOLCASOPENMOLCA
        OPENMOLCASOPENMOLCASOPENMOLCASOPE
            OPENMOLCASOPENMOLCASOPENM
               OPENMOLCASOPENMOLCA        version: v19.11 ?
                   OPENMOLCASO
                       OPE                tag:

 OpenMolcas is free software; you can redistribute it and/or modify it
 under the terms of the GNU Lesser General Public License version 2.1.
 OpenMolcas is distributed in the hope that it will be useful, but it
 is provided "as is" and without any express or implied warranties.
 For more details see the full text of the license in the file
 LICENSE or in <http://www.gnu.org/licenses/>.

                 Copyright (C) The OpenMolcas Authors
           For the author list and the recommended citation,
                   consult the file CONTRIBUTORS.md

           *************************************************
           * pymolcas version py2.06                       *
           *   build 99e611e35fc7aec87fd6f34cfa558dd4      *
           *   (after the EMIL interpreter by V. Veryazov) *
           *************************************************


   ------------------------------------------------------------------------------------------------------------
  |
  |              Project: alisuk
  |       Submitted from: /media/korden/5fb66ce1-8053-4a4f-9303-c4fa91c2cea8/home/korden/calc/orca/Artem/Alisuk
  |         Scratch area: /tmp/alisuk
  |      Save outputs to: /media/korden/5fb66ce1-8053-4a4f-9303-c4fa91c2cea8/home/korden/calc/orca/Artem/Alisuk
  |               Molcas: /usr/share/openmolcas
  |
  | Scratch area is NOT empty
  |
  |        MOLCAS_COLOR = YES
  |       MOLCAS_DRIVER = /usr/bin/pymolcas
  | MOLCAS_KEEP_WORKDIR = YES
  |      MOLCAS_MAXITER = 100
  |       MOLCAS_MOLDEN = YES
  |  MOLCAS_NEW_WORKDIR = NO
  |       MOLCAS_NPROCS = 1
  |        MOLCAS_PRINT = NORMAL
  |         MOLCAS_SAVE = ORIG
  |       MOLCAS_SOURCE = /home/korden/build
  |    MOLCAS_STRUCTURE = 0
  |         MOLCAS_TRAP = YES
  |
   ------------------------------------------------------------------------------------------------------------

++ ---------   Input file   ---------

&GATEWAY
Douglas-Kroll
AMFI
ANGM
0.065099 -0.726486 12.064650  Angstrom

Basis Set
Dy.ANO-RCC-VTZP.
 Dy1 0.065099 -0.726486 12.064650    Angstrom
End of Basis Set

Basis Set
N.ANO-RCC-VTZP.
 N1    -3.780307 -6.511386 10.098632    Angstrom
 N2    -0.450304 -3.216703 11.417348    Angstrom
 N3    -2.405836 -1.353990 11.533502    Angstrom
 N4    -5.597055 -4.801954 10.251093    Angstrom
End of Basis Set

Basis Set
C.ANO-RCC-VDZP.
 C1    -3.364103 -5.299639 10.504149    Angstrom
 C2    -1.995110 -4.968580 10.820075    Angstrom
 C3    -0.939145 -5.886430 10.772921    Angstrom
 C4    0.330883 -5.458598 11.033836    Angstrom
 C5    0.537997 -4.119194 11.338759    Angstrom
 C6    -1.706488 -3.632011 11.163035    Angstrom
 C7    -2.771879 -2.628472 11.228892    Angstrom
 C8    -3.369313 -0.437701 11.624822    Angstrom
 C9    -4.711450 -0.702174 11.425207    Angstrom
 C10    -5.086302 -1.977108 11.096706    Angstrom
 C11    -4.109355 -2.960956 10.974737    Angstrom
 C12    -4.393135 -4.338466 10.589024    Angstrom
 C13    -1.902910 2.849423 14.337699    Angstrom
 C14    -0.769236 2.068549 13.726280    Angstrom
 C15    0.537075 2.514366 13.881885    Angstrom
 C16    1.662202 1.941230 13.292471    Angstrom
 C17    3.014579 2.570180 13.518806    Angstrom
 C18    3.354315 -3.125532 14.339271    Angstrom
 C19    1.969893 -2.586886 14.109792    Angstrom
 C20    0.939732 -2.926708 14.991556    Angstrom
 C21    -0.378070 -2.493740 14.887819    Angstrom
 C22    -1.394757 -2.994941 15.887466    Angstrom
 C23    -1.003081 1.651625 8.121343    Angstrom
 C24    -0.301238 0.622396 8.968528    Angstrom
 C25    0.585099 -0.249957 8.339819    Angstrom
 C26    1.353947 -1.202887 8.987389    Angstrom
 C27    2.211491 -2.162727 8.177927    Angstrom
End of Basis Set

Basis Set
H.ANO-RCC-MB.
 H1    -1.101591 -6.778008 10.565448    Angstrom
 H2    1.045218 -6.053707 11.007115    Angstrom
 H3    1.408241 -3.833719 11.497508    Angstrom
 H4    -3.123132 0.433640 11.837011    Angstrom
 H5    -5.346867 -0.027175 11.510082    Angstrom
 H6    -5.982252 -2.183654 10.958391    Angstrom
 H7    -2.705127 2.693199 13.834732    Angstrom
 H8    -1.691330 3.785908 14.320410    Angstrom
 H9    -2.033394 2.566410 15.244611    Angstrom
 H10    0.672316 3.256921 14.424147    Angstrom
 H11    3.692712 1.891134 13.493658    Angstrom
 H12    3.026643 3.002729 14.376993    Angstrom
 H13    3.185156 3.218246 12.831942    Angstrom
 H14    3.554505 -3.787040 13.672840    Angstrom
 H15    3.401720 -3.523724 15.211604    Angstrom
 H16    3.989885 -2.408877 14.279544    Angstrom
 H17    1.152704 -3.485959 15.703569    Angstrom
 H18    -1.713184 -2.259610 16.417153    Angstrom
 H19    -0.984560 -3.647776 16.461162    Angstrom
 H20    -2.131975 -3.395898 15.422221    Angstrom
 H21    -1.909069 1.748904 8.421551    Angstrom
 H22    -0.997399 1.367151 7.203429    Angstrom
 H23    -0.547366 2.493240 8.196788    Angstrom
 H24    0.665656 -0.187387 7.415618    Angstrom
 H25    3.139193 -1.969823 8.330389    Angstrom
 H26    2.012905 -2.059684 7.244295    Angstrom
 H27    2.023243 -3.064873 8.446700    Angstrom
End of Basis Set

Basis Set
O.ANO-RCC-VTZP.
 O1    -1.092178 1.035573 13.075095    Angstrom
 O2    1.638443 0.929116 12.544937    Angstrom
 O3    1.810914 -1.861308 13.087826    Angstrom
 O4    -0.802218 -1.698992 14.003541    Angstrom
 O5    -0.558698 0.623518 10.199382    Angstrom
 O6    1.378055 -1.358020 10.237105    Angstrom
End of Basis Set

&SEWARD
HIGH Cholesky

&RASSCF
SYMM
1
CIMX
200
charge
0
Spin
6
ciroot
21 21 1
Nactel
9 0 0
Ras2
7
ORBL
nocore
ORBA
compact

>>> COPY $Project.JobIph JOB001

&RASSI
spinorbit
nrofjobiphs=1 21
1 2 3 4 5 6 7 8 9 10 11 12 13 14 15 16 17 18 19 20 21
mees
PROP
3
'ANGMOM' 1
'ANGMOM' 2
'ANGMOM' 3

&SINGLE_ANISO
MLTP
8
2 2 2 2  2 2 2 2
CRYS
Dy
XFIE
0.5
TINT
0 300 301
HINT
0 5 51
TMAG
3 2.0 4.0 6.0
UBAR

>>> COPY $Project.aniso $CurrDir/alisuk.aniso

-- ----------------------------------

--- Start Module: gateway at Wed Nov 20 00:32:13 2024 ---

()()()()()()()()()()()()()()()()()()()()()()()()()()()()()()()()()()()()()()()()()()()()()()()()()()

                                              &GATEWAY

                                   only a single process is used
                       available to each process: 32 GB of memory, 1 thread?
                                            pid: 412567
()()()()()()()()()()()()()()()()()()()()()()()()()()()()()()()()()()()()()()()()()()()()()()()()()()


++    Symmetry information:
      ---------------------

                    Character Table for C1 

                             E  
                    a        1  x, y, xy, Rz, z, xz, Ry, yz, Rx, I
--


++    Basis set information:
      ----------------------


      Basis set label: DY.ANO-RCC...8S7P5D3F2G1H.

      Electronic valence basis set:
      ------------------
      Associated Effective Charge  66.000000 au
      Associated Actual Charge     66.000000 au
      Nuclear Model: Point charge

      Shell  nPrim  nBasis  Cartesian Spherical Contaminant
         s      25       8        X                  
         p      22       7        X                  
         d      15       5                 X         
         f      11       3                 X         
         g       4       2                 X         
         h       2       1                 X         


      Basis set label: N.ANO-RCC...4S3P2D1F.

      Electronic valence basis set:
      ------------------
      Associated Effective Charge   7.000000 au
      Associated Actual Charge      7.000000 au
      Nuclear Model: Point charge

      Shell  nPrim  nBasis  Cartesian Spherical Contaminant
         s      14       4        X                  
         p       9       3        X                  
         d       4       2                 X         
         f       3       1                 X         


      Basis set label: C.ANO-RCC...3S2P1D.

      Electronic valence basis set:
      ------------------
      Associated Effective Charge   6.000000 au
      Associated Actual Charge      6.000000 au
      Nuclear Model: Point charge

      Shell  nPrim  nBasis  Cartesian Spherical Contaminant
         s      14       3        X                  
         p       9       2        X                  
         d       4       1                 X         


      Basis set label: H.ANO-RCC...1S.

      Electronic valence basis set:
      ------------------
      Associated Effective Charge   1.000000 au
      Associated Actual Charge      1.000000 au
      Nuclear Model: Point charge

      Shell  nPrim  nBasis  Cartesian Spherical Contaminant
         s       8       1        X                  


      Basis set label: O.ANO-RCC...4S3P2D1F.

      Electronic valence basis set:
      ------------------
      Associated Effective Charge   8.000000 au
      Associated Actual Charge      8.000000 au
      Nuclear Model: Point charge

      Shell  nPrim  nBasis  Cartesian Spherical Contaminant
         s      14       4        X                  
         p       9       3        X                  
         d       4       2                 X         
         f       3       1                 X         
--


++    Molecular structure info:
      -------------------------

                    ************************************************ 
                    **** Cartesian Coordinates / Bohr, Angstrom **** 
                    ************************************************ 

     Center  Label                x              y              z                     x              y              z
        1      DY1              0.123019      -1.372860      22.798884              0.065099      -0.726486      12.064650
        2      N1              -7.143745     -12.304736      19.083649             -3.780307      -6.511386      10.098632
        3      N2              -0.850951      -6.078688      21.575661             -0.450304      -3.216703      11.417348
        4      N3              -4.546371      -2.558670      21.795160             -2.405836      -1.353990      11.533502
        5      N4             -10.576901      -9.074378      19.371758             -5.597055      -4.801954      10.251093
        6      C1              -6.357233     -10.014866      19.849965             -3.364103      -5.299639      10.504149
        7      C2              -3.770211      -9.389255      20.446978             -1.995110      -4.968580      10.820075
        8      C3              -1.774727     -11.123741      20.357870             -0.939145      -5.886430      10.772921
        9      C4               0.625278     -10.315255      20.850928              0.330883      -5.458598      11.033836
       10      C5               1.016667      -7.784149      21.427149              0.537997      -4.119194      11.338759
       11      C6              -3.224795      -6.863506      21.095079             -1.706488      -3.632011      11.163035
       12      C7              -5.238092      -4.967092      21.219531             -2.771879      -2.628472      11.228892
       13      C8              -6.367079      -0.827135      21.967730             -3.369313      -0.437701      11.624822
       14      C9              -8.903350      -1.326917      21.590512             -4.711450      -0.702174      11.425207
       15      C10             -9.611718      -3.736193      20.969735             -5.086302      -1.977108      11.096706
       16      C11             -7.765555      -5.595396      20.739247             -4.109355      -2.960956      10.974737
       17      C12             -8.301822      -8.198513      20.010355             -4.393135      -4.338466      10.589024
       18      C13             -3.595979       5.384629      27.094324             -1.902910       2.849423      14.337699
       19      C14             -1.453645       3.908991      25.938910             -0.769236       2.068549      13.726280
       20      C15              1.014925       4.751463      26.232961              0.537075       2.514366      13.881885
       21      C16              3.141107       3.668393      25.119130              1.662202       1.941230      13.292471
       22      C17              5.696729       4.856936      25.546841              3.014579       2.570180      13.518806
       23      C18              6.338737      -5.906399      27.097295              3.354315      -3.125532      14.339271
       24      C19              3.722558      -4.888506      26.663643              1.969893      -2.586886      14.109792
       25      C20              1.775836      -5.530677      28.329935              0.939732      -2.926708      14.991556
       26      C21             -0.714449      -4.712486      28.133901             -0.378070      -2.493740      14.887819
       27      C22             -2.635709      -5.659618      30.022960             -1.394757      -2.994941      15.887466
       28      C23             -1.895548       3.121119      15.347114             -1.003081       1.651625       8.121343
       29      C24             -0.569257       1.176158      16.948062             -0.301238       0.622396       8.968528
       30      C25              1.105677      -0.472350      15.759974              0.585099      -0.249957       8.339819
       31      C26              2.558589      -2.273127      16.983704              1.353947      -1.202887       8.987389
       32      C27              4.179112      -4.086962      15.454042              2.211491      -2.162727       8.177927
       33      H1              -2.081705     -12.808579      19.965803             -1.101591      -6.778008      10.565448
       34      H2               1.975176     -11.439848      20.800433              1.045218      -6.053707      11.007115
       35      H3               2.661190      -7.244679      21.727141              1.408241      -3.833719      11.497508
       36      H4              -5.901864       0.819461      22.368709             -3.123132       0.433640      11.837011
       37      H5             -10.104114      -0.051353      21.750903             -5.346867      -0.027175      11.510082
       38      H6             -11.304818      -4.126508      20.708358             -5.982252      -2.183654      10.958391
       39      H7              -5.111949       5.089409      26.143854             -2.705127       2.693199      13.834732
       40      H8              -3.196150       7.154329      27.061653             -1.691330       3.785908      14.320410
       41      H9              -3.842558       4.849812      28.808140             -2.033394       2.566410      15.244611
       42      H10              1.270493       6.154689      27.257687              0.672316       3.256921      14.424147
       43      H11              6.978214       3.573725      25.499318              3.692712       1.891134      13.493658
       44      H12              5.719526       5.674335      27.168579              3.026643       3.002729      14.376993
       45      H13              6.019073       6.081604      24.248856              3.185156       3.218246      12.831942
       46      H14              6.717041      -7.156468      25.837923              3.554505      -3.787040      13.672840
       47      H15              6.428319      -6.658873      28.745765              3.401720      -3.523724      15.211604
       48      H16              7.539790      -4.552118      26.984427              3.989885      -2.408877      14.279544
       49      H17              2.178295      -6.587508      29.675445              1.152704      -3.485959      15.703569
       50      H18             -3.237449      -4.270044      31.023923             -1.713184      -2.259610      16.417153
       51      H19             -1.860549      -6.893298      31.107088             -0.984560      -3.647776      16.461162
       52      H20             -4.028849      -6.417317      29.143774             -2.131975      -3.395898      15.422221
       53      H21             -3.607618       3.304950      15.914425             -1.909069       1.748904       8.421551
       54      H22             -1.884811       2.583541      13.612508             -0.997399       1.367151       7.203429
       55      H23             -1.034372       4.711541      15.489684             -0.547366       2.493240       8.196788
       56      H24              1.257908      -0.354110      14.013487              0.665656      -0.187387       7.415618
       57      H25              5.932215      -3.722426      15.742154              3.139193      -1.969823       8.330389
       58      H26              3.803839      -3.892239      13.689734              2.012905      -2.059684       7.244295
       59      H27              3.823375      -5.791771      15.961950              2.023243      -3.064873       8.446700
       60      O1              -2.063917       1.956949      24.708349             -1.092178       1.035573      13.075095
       61      O2               3.096209       1.755775      23.706495              1.638443       0.929116      12.544937
       62      O3               3.422131      -3.517362      24.732407              1.810914      -1.861308      13.087826
       63      O4              -1.515972      -3.210630      26.462857             -0.802218      -1.698992      14.003541
       64      O5              -1.055786       1.178278      19.274039             -0.558698       0.623518      10.199382
       65      O6               2.604147      -2.566286      19.345325              1.378055      -1.358020      10.237105

                    ************************************************* 
                    **** InterNuclear Distances / Bohr, Angstrom **** 
                    ************************************************* 

     Atom centers         Bohr        Angstrom
   42 H10      20 C15     1.756252        0.929369
   35 H3       10 C5      1.756553        0.929528
   33 H1        8 C3      1.756881        0.929702
   38 H6       15 C10     1.757058        0.929795
   56 H24      30 C25     1.757092        0.929813
   36 H4       13 C8      1.757409        0.929981
   49 H17      25 C20     1.757629        0.930097
   34 H2        9 C4      1.757692        0.930131
   37 H5       14 C9      1.759154        0.930904
   41 H9       18 C13     1.812179        0.958964
   53 H21      28 C23     1.812958        0.959376
   52 H20      27 C22     1.813261        0.959536
   45 H13      22 C17     1.813417        0.959619
   39 H7       18 C13     1.813481        0.959653
   48 H16      23 C18     1.813633        0.959733
   57 H25      32 C27   
   59 H27      32 C27     1.814082        0.959971
   43 H11      22 C17     1.814137        0.960000
   55 H23      28 C23     1.814220        0.960044
   58 H26      32 C27     1.814258        0.960064
   47 H15      23 C18     1.814303        0.960088
   46 H14      23 C18     1.814333        0.960104
   40 H8       18 C13     1.814599        0.960244
   50 H18      27 C22     1.815196        0.960560
   54 H22      28 C23     1.816030        0.961001
   51 H19      27 C22     1.816087        0.961032
   44 H12      22 C17     1.816231        0.961108
   64 O5       29 C24     2.376317        1.257493
   61 O2       21 C16     2.378163        1.258470
   65 O6       31 C26     2.380183        1.259539
   63 O4       26 C21     2.385455        1.262329
   60 O1       19 C14     2.386877        1.263081
   62 O3       24 C19     2.387460        1.263389
   13 C8        4 N3      2.518526        1.332746
   17 C12       5 N4      2.520105        1.333582
   10 C5        3 N2      2.533506        1.340673
    6 C1        2 N1      2.539556        1.343875
   11 C6        3 N2      2.545984        1.347277
   12 C7        4 N3      2.571055        1.360544
    9 C4        8 C3      2.580073        1.365316
   15 C10      14 C9      2.586844        1.368899
   14 C9       13 C8      2.612422        1.382434
   31 C26      30 C25     2.617492        1.385117
   20 C15      19 C14     2.624893        1.389034
   10 C5        9 C4      2.625208        1.389200
   26 C21      25 C20     2.628571        1.390980
   16 C11      15 C10     2.630224        1.391854
   21 C16      20 C15     2.633308        1.393486
   30 C25      29 C24     2.633351        1.393509
   25 C20      24 C19     2.641712        1.397934
    8 C3        7 C2      2.645437        1.399905
   16 C11      12 C7      2.648303        1.401422
   11 C6        7 C2      2.664005        1.409731
   17 C12       6 C1      2.665763        1.410661
    7 C2        6 C1      2.727727        1.443451
   17 C12      16 C11     2.755918        1.458369
   12 C7       11 C6      2.768617        1.465089
   24 C19      23 C18     2.840519        1.503138
   19 C14      18 C13     2.846416        1.506258
   29 C24      28 C23     2.846920        1.506525
   22 C17      21 C16     2.850750        1.508552
   27 C22      26 C21     2.856019        1.511340
   32 C27      31 C26     2.873318        1.520494
   41 H9       39 H7      2.960942        1.566863
   58 H26      57 H25     2.961629        1.567227
   59 H27      58 H26     2.961684        1.567255
   52 H20      50 H18     2.961766        1.567299
   45 H13      43 H11     2.961935        1.567389
   48 H16      46 H14     2.962099        1.567475
   55 H23      54 H22     2.962334        1.567600
   48 H16      47 H15     2.962448        1.567660
   40 H8       39 H7      2.962522        1.567699
   59 H27      57 H25     2.962719        1.567803
   41 H9       40 H8      2.962914        1.567906
   45 H13      44 H12     2.963170        1.568042
   55 H23      53 H21     2.963190        1.568053
   52 H20      51 H19     2.963559        1.568248
   44 H12      43 H11     2.963662        1.568302
   51 H19      50 H18     2.963820        1.568386
   47 H15      46 H14     2.964205        1.568590
   54 H22      53 H21     2.964341        1.568661
   36 H4        4 N3      3.684846        1.949936
   35 H3        3 N2      3.703730        1.959930
   56 H24      31 C26     3.767836        1.993853
   42 H10      19 C14     3.768722        1.994322
   36 H4       14 C9      3.771133        1.995598
   42 H10      21 C16     3.775485        1.997901
   49 H17      26 C21     3.776246        1.998303
   56 H24      29 C24     3.780473        2.000540
   33 H1        9 C4      3.785217        2.003051
   35 H3        9 C4      3.786968        2.003977
   49 H17      24 C19     3.787124        2.004060
   34 H2        8 C3      3.789136        2.005125
   38 H6       14 C9      3.792487        2.006898
   37 H5       15 C10     3.798778        2.010227
   37 H5       13 C8      3.822863        2.022972
   34 H2       10 C5      3.830882        2.027215
   38 H6       16 C11     3.832097        2.027858
   33 H1        7 C2      3.843742        2.034021
   48 H16      24 C19     3.845428        2.034913
   47 H15      24 C19     3.845852        2.035137
   46 H14      24 C19     3.846088        2.035262
   39 H7       19 C14     3.849490        2.037062
   41 H9       19 C14     3.850263        2.037471
   40 H8       19 C14     3.850856        2.037785
   53 H21      29 C24     3.851207        2.037971
   54 H22      29 C24     3.851925        2.038351
   55 H23      29 C24     3.852548        2.038681
   45 H13      21 C16     3.855340        2.040158
   44 H12      21 C16     3.856462        2.040752
   43 H11      21 C16     3.857059        2.041068
   51 H19      26 C21     3.861260        2.043291
   52 H20      26 C21     3.861547        2.043443
   50 H18      26 C21     3.861802        2.043577
   58 H26      31 C26     3.875875        2.051025
   57 H25      31 C26     3.875986        2.051083
   59 H27      31 C26     3.876147        2.051169
   51 H19      49 H17     4.295971        2.273330
   56 H24      54 H22     4.320562        2.286343
   37 H5       36 H4      4.335771        2.294391
    6 C1        5 N4      4.349574        2.301696
   35 H3       34 H2      4.350730        2.302307
   49 H17      47 H15     4.351104        2.302505
   11 C6       10 C5      4.352913        2.303462
   13 C8       12 C7      4.355876        2.305030
   34 H2       33 H1      4.362146        2.308348
   17 C12       2 N1      4.365891        2.310330
   58 H26      56 H24     4.370920        2.312991
   38 H6       37 H5      4.374411        2.314839
   62 O3        1 DY1     4.384238        2.320039
   61 O2        1 DY1     4.410438        2.333903
   65 O6       30 C25     4.414150        2.335868
   63 O4        1 DY1     4.414566        2.336088
   65 O6        1 DY1     4.416711        2.337223
   60 O1        1 DY1     4.417734        2.337764
   60 O1       20 C15     4.428659        2.343545
   61 O2       20 C15     4.437220        2.348076
   63 O4       25 C20     4.438986        2.349010
   62 O3       25 C20     4.439136        2.349090
   64 O5       30 C25     4.443551        2.351426
   61 O2       22 C17     4.445985        2.352714
   60 O1       18 C13     4.448492        2.354041
   62 O3       23 C18     4.450481        2.355093
   64 O5       28 C23     4.461005        2.360662
   63 O4       27 C22     4.463819        2.362151
   65 O6       32 C27     4.464869        2.362707
   15 C10      13 C8      4.470603        2.365741
   44 H12      42 H10     4.475777        2.368479
   10 C5        8 C3      4.481976        2.371760
   16 C11      14 C9      4.498794        2.380659
   64 O5        1 DY1     4.508040        2.385552
    9 C4        7 C2      4.510098        2.386641
   14 C9        4 N3      4.532368        2.398426
   12 C7        3 N2      4.539766        2.402341
    9 C4        3 N2      4.544557        2.404876
   16 C11       4 N3      4.549704        2.407599
   15 C10      12 C7      4.550397        2.407966
    7 C2        3 N2      4.555860        2.410857
   11 C6        4 N3      4.557224        2.411579
   11 C6        8 C3      4.560238        2.413174
   42 H10      40 H8      4.581333        2.424337
   60 O1       39 H7      4.600378        2.434415
   17 C12      12 C7      4.614176        2.441717
   11 C6        6 C1      4.614494        2.441885
   60 O1       36 H4      4.636554        2.453559
   61 O2       43 H11     4.646410        2.458774
   31 C26      29 C24     4.656421        2.464072
    7 C2        2 N1      4.662556        2.467318
   21 C16      19 C14     4.673507        2.473114
   16 C11       5 N4      4.677286        2.475113
   26 C21      24 C19     4.677571        2.475264
   30 C25      28 C23     4.700088        2.487179
   17 C12       7 C2      4.705741        2.490171
    5 N4        2 N1      4.722794        2.499195
   16 C11       6 C1      4.722914        2.499258
   12 C7        7 C2      4.723033        2.499321
   64 O5       53 H21     4.724572        2.500136
   27 C22      25 C20     4.727017        2.501429
   16 C11      11 C6      4.727920        2.501907
   22 C17      20 C15     4.732988        2.504589
   20 C15      18 C13     4.733210        2.504707
   25 C20      23 C18     4.741374        2.509027
    8 C3        6 C1      4.742039        2.509379
   17 C12      15 C10     4.748530        2.512814
   32 C27      30 C25     4.754473        2.515959
   51 H19      25 C20     4.774161        2.526377
   54 H22      30 C25     4.784673        2.531940
   47 H15      25 C20     4.805345        2.542879
   62 O3       48 H16     4.805978        2.543214
   58 H26      30 C25     4.823029        2.552237
   65 O6       59 H27     4.830890        2.556397
   62 O3       35 H3      4.848045        2.565475
   63 O4       52 H20     4.876957        2.580774
   56 H24      28 C23     4.878531        2.581607
   44 H12      20 C15     4.884706        2.584875
   49 H17      27 C22     4.914914        2.600860
   40 H8       20 C15     4.918704        2.602866
   42 H10      22 C17     4.919626        2.603354
    4 N3        1 DY1     4.921058        2.604112
   42 H10      18 C13     4.929729        2.608700
   49 H17      23 C18     4.941664        2.615016
   56 H24      32 C27     4.954071        2.621581
    3 N2        1 DY1     4.958802        2.624085
   63 O4       50 H18     4.988904        2.640014
   62 O3       46 H14     5.032066        2.662855
   65 O6       57 H25     5.039399        2.666735
   38 H6       17 C12     5.107486        2.702765
    4 N3        3 N2      5.108310        2.703201
   33 H1        6 C1      5.108658        2.703385
   16 C11      13 C8      5.118713        2.708706
   10 C5        7 C2      5.143084        2.721603
   33 H1        2 N1      5.162974        2.732128
   11 C6        9 C4      5.176606        2.739342
   38 H6        5 N4      5.176657        2.739369
   64 O5       55 H23     5.177426        2.739776
   14 C9       12 C7      5.179056        2.740638
   65 O6       64 O5      5.236597        2.771088
   63 O4       62 O3      5.241509        2.773687
   61 O2       45 H13     5.248817        2.777555
   65 O6       35 H3      5.250111        2.778239
   61 O2       60 O1      5.260331        2.783647
   15 C10       4 N3      5.265512        2.786389
    8 C3        3 N2      5.271521        2.789569
   60 O1       41 H9      5.323580        2.817117
   12 C7        6 C1      5.348664        2.830391
   17 C12      11 C6      5.360510        2.836660
   62 O3       61 O2      5.381886        2.847971
   65 O6        3 N2      5.408241        2.861918
   65 O6       29 C24     5.461067        2.889872
   63 O4       60 O1      5.484744        2.902402
   62 O3       26 C21     5.487238        2.903721
   60 O1       21 C16     5.494548        2.907589
   64 O5       31 C26     5.497412        2.909105
   41 H9       20 C15     5.498759        2.909818
   42 H10      41 H9      5.499990        2.910470
   63 O4       24 C19     5.504343        2.912773
   61 O2       19 C14     5.506468        2.913897
   16 C11       7 C2      5.517388        2.919676
   65 O6       62 O3      5.531211        2.926991
   45 H13      20 C15     5.545037        2.934307
   35 H3       24 C19     5.571992        2.948571
   64 O5       60 O1      5.581611        2.953661
   63 O4        4 N3      5.603192        2.965082
   55 H23      30 C25     5.614765        2.971206
   45 H13      42 H10     5.622047        2.975059
    8 C3        2 N1      5.643115        2.986208
   15 C10       5 N4      5.655204        2.992605
--


            Nuclear Potential Energy           6676.27274089 au

--- Stop Module: gateway at Wed Nov 20 00:32:13 2024 /rc=_RC_ALL_IS_WELL_ ---
*** files: xmldump
    saved to directory /media/korden/5fb66ce1-8053-4a4f-9303-c4fa91c2cea8/home/korden/calc/orca/Artem/Alisuk

--- Start Module: seward at Wed Nov 20 00:32:13 2024 ---

()()()()()()()()()()()()()()()()()()()()()()()()()()()()()()()()()()()()()()()()()()()()()()()()()()

                                              &SEWARD

                                   only a single process is used
                       available to each process: 32 GB of memory, 1 thread?
                                            pid: 412570
()()()()()()()()()()()()()()()()()()()()()()()()()()()()()()()()()()()()()()()()()()()()()()()()()()

               SEWARD will generate:
                  Multipole Moment integrals up to order  2
                  Kinetic Energy integrals
                  Nuclear Attraction integrals (point charge)
                  One-Electron Hamiltonian integrals
                  Velocity integrals
                  Relativistic Douglas-Kroll integrals
                  Orbital angular momentum around ( 0.1230 -1.3729 22.7989 )
                  Velocity quadrupole around (-1.0773 -2.6978 22.3855 )
                  Atomic mean-field integrals
                  Cholesky decomposed two-electron repulsion integrals
                   - CD Threshold:   0.10E-07

                   Integrals are discarded if absolute value <: 0.10E-39
                   Integral cutoff threshold is set to       <: 0.10E-39

            Nuclear Potential Energy           6676.27274089 au


      Basis set specifications :
      Symmetry species         a  
      Basis functions          809

      Cholesky vectors       10668


 Sorry, Molden does not know how to handle
 functions with angular momentum larger than g
--- Stop Module: seward at Wed Nov 20 05:14:28 2024 /rc=_RC_ALL_IS_WELL_ ---
*** files: alisuk.GssOrb xmldump
    saved to directory /media/korden/5fb66ce1-8053-4a4f-9303-c4fa91c2cea8/home/korden/calc/orca/Artem/Alisuk
--- Module seward spent 4 hours 42 minutes 15 seconds ---

*** symbolic link created: INPORB -> alisuk.GssOrb
--- Start Module: rasscf at Wed Nov 20 05:14:28 2024 ---

()()()()()()()()()()()()()()()()()()()()()()()()()()()()()()()()()()()()()()()()()()()()()()()()()()

                                              &RASSCF

                                   only a single process is used
                       available to each process: 32 GB of memory, 1 thread?
                                            pid: 413583
()()()()()()()()()()()()()()()()()()()()()()()()()()()()()()()()()()()()()()()()()()()()()()()()()()


      Header of the ONEINT file:
      --------------------------
      
      Integrals generated by Gateway/Seward, Wed Nov 20 00:32:13 2024


      OrdInt status: non-squared


      Cartesian coordinates in Angstrom:
      -----------------------------------------------------
      No.  Label        X            Y            Z        
      -----------------------------------------------------
       1   DY1        0.06509900  -0.72648600  12.06465000
       2   N1        -3.78030700  -6.51138600  10.09863200
       3   N2        -0.45030400  -3.21670300  11.41734800
       4   N3        -2.40583600  -1.35399000  11.53350200
       5   N4        -5.59705500  -4.80195400  10.25109300
       6   C1        -3.36410300  -5.29963900  10.50414900
       7   C2        -1.99511000  -4.96858000  10.82007500
       8   C3        -0.93914500  -5.88643000  10.77292100
       9   C4         0.33088300  -5.45859800  11.03383600
      10   C5         0.53799700  -4.11919400  11.33875900
      11   C6        -1.70648800  -3.63201100  11.16303500
      12   C7        -2.77187900  -2.62847200  11.22889200
      13   C8        -3.36931300  -0.43770100  11.62482200
      14   C9        -4.71145000  -0.70217400  11.42520700
      15   C10       -5.08630200  -1.97710800  11.09670600
      16   C11       -4.10935500  -2.96095600  10.97473700
      17   C12       -4.39313500  -4.33846600  10.58902400
      18   C13       -1.90291000   2.84942300  14.33769900
      19   C14       -0.76923600   2.06854900  13.72628000
      20   C15        0.53707500   2.51436600  13.88188500
      21   C16        1.66220200   1.94123000  13.29247100
      22   C17        3.01457900   2.57018000  13.51880600
      23   C18        3.35431500  -3.12553200  14.33927100
      24   C19        1.96989300  -2.58688600  14.10979200
      25   C20        0.93973200  -2.92670800  14.99155600
      26   C21       -0.37807000  -2.49374000  14.88781900
      27   C22       -1.39475700  -2.99494100  15.88746600
      28   C23       -1.00308100   1.65162500   8.12134300
      29   C24       -0.30123800   0.62239600   8.96852800
      30   C25        0.58509900  -0.24995700   8.33981900
      31   C26        1.35394700  -1.20288700   8.98738900
      32   C27        2.21149100  -2.16272700   8.17792700
      33   H1        -1.10159100  -6.77800800  10.56544800
      34   H2         1.04521800  -6.05370700  11.00711500
      35   H3         1.40824100  -3.83371900  11.49750800
      36   H4        -3.12313200   0.43364000  11.83701100
      37   H5        -5.34686700  -0.02717500  11.51008200
      38   H6        -5.98225200  -2.18365400  10.95839100
      39   H7        -2.70512700   2.69319900  13.83473200
      40   H8        -1.69133000   3.78590800  14.32041000
      41   H9        -2.03339400   2.56641000  15.24461100
      42   H10        0.67231600   3.25692100  14.42414700
      43   H11        3.69271200   1.89113400  13.49365800
      44   H12        3.02664300   3.00272900  14.37699300
      45   H13        3.18515600   3.21824600  12.83194200
      46   H14        3.55450500  -3.78704000  13.67284000
      47   H15        3.40172000  -3.52372400  15.21160400
      48   H16        3.98988500  -2.40887700  14.27954400
      49   H17        1.15270400  -3.48595900  15.70356900
      50   H18       -1.71318400  -2.25961000  16.41715300
      51   H19       -0.98456000  -3.64777600  16.46116200
      52   H20       -2.13197500  -3.39589800  15.42222100
      53   H21       -1.90906900   1.74890400   8.42155100
      54   H22       -0.99739900   1.36715100   7.20342900
      55   H23       -0.54736600   2.49324000   8.19678800
      56   H24        0.66565600  -0.18738700   7.41561800
      57   H25        3.13919300  -1.96982300   8.33038900
      58   H26        2.01290500  -2.05968400   7.24429500
      59   H27        2.02324300  -3.06487300   8.44670000
      60   O1        -1.09217800   1.03557300  13.07509500
      61   O2         1.63844300   0.92911600  12.54493700
      62   O3         1.81091400  -1.86130800  13.08782600
      63   O4        -0.80221800  -1.69899200  14.00354100
      64   O5        -0.55869800   0.62351800  10.19938200
      65   O6         1.37805500  -1.35802000  10.23710500
      -----------------------------------------------------
      Nuclear repulsion energy = 6676.27274089

++    Wave function specifications:
      -----------------------------

      Number of closed shell electrons         322
      Number of electrons in active shells       9
      Max number of holes in RAS1 space          0
      Max nr of electrons in RAS3 space          0
      Number of inactive orbitals              161
      Number of active orbitals                  7
      Number of secondary orbitals             641
      Spin quantum number                      2.5
      State symmetry                             1
--

++    Orbital specifications:
      -----------------------

      Symmetry species                           1
                                                 a
      Frozen orbitals                            0
      Inactive orbitals                        161
      Active orbitals                            7
      RAS1 orbitals                              0
      RAS2 orbitals                              7
      RAS3 orbitals                              0
      Secondary orbitals                       641
      Deleted orbitals                           0
      Number of basis functions                809
--

++    CI expansion specifications:
      ----------------------------

      Number of CSFs                            21
      Number of determinants                    21
      Number of root(s) required                21
      Root chosen for geometry opt.             21
      CI roots used                              1     2     3     4     5     6     7     8     9    10
                                                11    12    13    14    15    16    17    18    19    20
                                                21
      weights                                0.048 0.048 0.048 0.048 0.048 0.048 0.048 0.048 0.048 0.048
                                             0.048 0.048 0.048 0.048 0.048 0.048 0.048 0.048 0.048 0.048
                                             0.048
      highest root included in the CI           21
      max. size of the explicit Hamiltonian     21
--

++    Optimization specifications:
      ----------------------------

      RASSCF algorithm: LK Cholesky
      Maximum number of macro iterations       200
      Maximum number of SX iterations          100
      Threshold for RASSCF energy            0.100E-07
      Threshold for max MO rotation          0.100E+00
      Threshold for max BLB element          0.100E-03
      Level shift parameter                  0.500E+00
      Make Quasi-Newton update
--

      Orbitals from runfile: guessorb orbitals
      The MO-coefficients are taken from guessorb on runfile

      Total molecular charge    0.00

      ************************************************************************************************************************
      *                                                                                                                      *
      *                                            Wave function control section                                             *
      *                                                                                                                      *
      ************************************************************************************************************************


                                         RASSCF iterations: Energy and convergence statistics
                                         ----------------------------------------------------

      Iter CI   SX   CI       RASSCF       Energy    max ROT     max BLB   max BLB  Level Ln srch  Step   QN   Walltime
          iter iter root      energy       change     param      element    value   shift minimum  type update hh:mm:ss
 Nr of preliminary CI iterations:   1
      Total energies have been shifted. Add               -13000.00 au
        1   1   12    0  -833.91325228    0.00E+00  -0.15E+00*  60 794 1 -0.14E+01*  4.44   0.00    SX    NO    0:37:54
        2   1   13    0  -840.79063957   -0.69E+01* -0.15E+00* 156 162 1  0.55E+00*  2.67   0.00    SX    NO    0:16:22
        3   1   13    0  -844.99991155   -0.42E+01*  0.16E+00*  60 794 1  0.40E+00*  1.68   0.00    SX    NO    0:17:33
        4   1   12    0  -847.73217031   -0.27E+01*  0.15E+00* 160 169 1 -0.24E+00*  1.25   0.00    SX    NO    0:18:21
        5   1   12    0  -849.32865863   -0.16E+01*  0.10E+00*  61 806 1  0.18E+00*  0.82   2.13    QN   YES    0:19:13
        6   1   13    0  -850.08231276   -0.75E+00* -0.11E+00* 155 164 1  0.13E+00*  0.61   2.50    QN   YES    0:19:33
        7   1   13    0  -850.69394833   -0.61E+00* -0.12E+00* 155 164 1  0.11E+00*  0.49   2.50    QN   YES    0:19:51
        8   1   13    0  -851.18468920   -0.49E+00* -0.11E+00* 158 166 1  0.85E-01*  0.48   2.50    QN   YES    0:19:53
        9   1   14    0  -851.56212931   -0.38E+00*  0.13E+00* 161 168 1 -0.87E-01*  0.46   2.50    QN   YES    0:19:58
       10   1   14    0  -851.85998379   -0.30E+00*  0.12E+00* 167 169 1  0.78E-01*  0.44   2.45    QN   YES    0:19:46
       11   1   14    0  -852.08502158   -0.23E+00* -0.15E+00* 159 163 1  0.11E+00*  0.43   2.01    QN   YES    0:19:41
       12   1   14    0  -852.24924923   -0.16E+00* -0.14E+00* 159 163 1  0.96E-01*  0.41   1.76    QN   YES    0:19:07
       13   1   14    0  -852.33428866   -0.85E-01* -0.49E-01   61 806 1 -0.49E-01*  0.37   1.18    QN   YES    0:19:03
       14   1   13    0  -852.36772254   -0.33E-01* -0.23E-01   61 247 1  0.19E-01*  0.38   1.54    QN   YES    0:19:39
       15   1   13    0  -852.38149571   -0.14E-01* -0.10E-01  116 169 1 -0.11E-01*  0.39   1.39    QN   YES    0:20:27
       16   1   12    0  -852.38510602   -0.36E-02* -0.83E-02   60 794 1  0.14E-01*  0.41   1.24    QN   YES    0:20:58
       17   1   12    0  -852.38638309   -0.13E-02*  0.10E-01   60 794 1 -0.65E-02*  0.40   1.35    QN   YES    0:20:42
       18   1   12    0  -852.38762613   -0.12E-02*  0.33E-01  150 169 1 -0.79E-02*  0.40   2.50    QN   YES    0:21:28
       19   1   12    0  -852.39051465   -0.29E-02*  0.88E-01  150 169 1 -0.13E-01*  0.40   2.49    QN   YES    0:21:20
       20   1   13    0  -852.39684451   -0.63E-02*  0.98E-01  150 169 1 -0.27E-01*  0.40   1.32    QN   YES    0:20:55
       21   1   13    0  -852.40114889   -0.43E-02*  0.31E-01  115 170 1  0.47E-01*  0.40   0.86    QN   YES    0:20:18
       22   1   13    0  -852.41243872   -0.11E-01*  0.21E+00* 115 170 1  0.47E-01*  0.40   2.50    QN   YES    0:19:43
       23   1   13    0  -852.45004451   -0.38E-01*  0.66E-01  136 169 1 -0.49E-01*  0.40   0.83    QN   YES    0:19:44
       24   1   13    0  -852.49043308   -0.40E-01*  0.15E-01  117 169 1 -0.18E-01*  0.40   1.04    QN   YES    0:19:32
       25   1   13    0  -852.49890922   -0.85E-02*  0.49E-01  150 169 1 -0.12E-01*  0.40   2.06    QN   YES    0:20:31
       26   1   12    0  -852.50402444   -0.51E-02*  0.12E-01  117 169 1 -0.77E-02*  0.40   1.03    QN   YES    0:20:55
       27   1   12    0  -852.50532211   -0.13E-02* -0.63E-02  139 189 1  0.57E-02*  0.40   0.74    QN   YES    0:21:18
       28   1   11    0  -852.50598161   -0.66E-03*  0.35E-02  150 170 1  0.24E-02*  0.40   1.51    QN   YES    0:21:35
       29   1   10    0  -852.50623122   -0.25E-03*  0.31E-02  150 170 1  0.24E-02*  0.40   1.38    QN   YES    0:22:21
       30   1   10    0  -852.50633922   -0.11E-03* -0.43E-02  150 170 1  0.21E-02*  0.40   1.62    QN   YES    0:22:21
       31   1   10    0  -852.50643012   -0.91E-04*  0.46E-02  150 170 1  0.16E-02*  0.40   1.64    QN   YES    0:22:28
       32   1   10    0  -852.50650076   -0.71E-04* -0.41E-02  150 170 1  0.11E-02*  0.40   1.69    QN   YES    0:22:40
       33   1   10    0  -852.50654965   -0.49E-04*  0.31E-02  118 169 1  0.97E-03*  0.40   1.63    QN   YES    0:22:58
       34   1    9    0  -852.50657958   -0.30E-04* -0.22E-02  118 169 1  0.78E-03*  0.40   1.64    QN   YES    0:23:05
       35   1    9    0  -852.50659797   -0.18E-04* -0.12E-02  139 169 1 -0.48E-03*  0.40   1.55    QN   YES    0:23:15
       36   1    9    0  -852.50660698   -0.90E-05* -0.61E-03  150 169 1  0.30E-03*  0.40   1.42    QN   YES    0:23:37
       37   1    9    0  -852.50661033   -0.33E-05* -0.38E-03  144 170 1  0.22E-03*  0.40   1.33    QN   YES    0:23:58
       38   1    8    0  -852.50661157   -0.12E-05*  0.23E-03  144 170 1  0.13E-03*  0.40   1.41    QN   YES    0:24:12
       39   1    8    0  -852.50661224   -0.67E-06* -0.25E-03  157 169 1 -0.11E-03*  0.40   1.70    QN   YES    0:24:33
       40   1    8    0  -852.50661276   -0.53E-06*  0.32E-03  157 169 1 -0.11E-03*  0.40   1.68    QN   YES    0:24:39
       41   1    8    0  -852.50661318   -0.41E-06*  0.35E-03  157 169 1 -0.94E-04   0.40   1.70    QN   YES    0:24:39
       42   1    8    0  -852.50661349   -0.32E-06* -0.29E-03  150 170 1 -0.73E-04   0.40   1.59    QN   YES    0:24:44
       43   1    8    0  -852.50661371   -0.22E-06*  0.23E-03  150 170 1 -0.73E-04   0.40   1.64    QN   YES    0:24:52
       44   1    7    0  -852.50661388   -0.17E-06* -0.23E-03  130 170 1  0.71E-04   0.40   1.74    QN   YES    0:24:52
       45   1    7    0  -852.50661405   -0.17E-06* -0.33E-03  130 170 1  0.74E-04   0.40   1.90    QN   YES    0:24:52
       46   1    8    0  -852.50661425   -0.21E-06*  0.42E-03  157 170 1  0.73E-04   0.40   2.07    QN   YES    0:24:51
       47   1    8    0  -852.50661448   -0.23E-06*  0.42E-03  154 169 1  0.76E-04   0.40   1.78    QN   YES    0:24:53
       48   1    8    0  -852.50661469   -0.20E-06* -0.28E-03  136 169 1  0.65E-04   0.40   1.63    QN   YES    0:24:51
       49   1    7    0  -852.50661482   -0.13E-06*  0.13E-03  136 169 1  0.63E-04   0.40   1.57    QN   YES    0:24:57
       50   1    7    0  -852.50661488   -0.66E-07* -0.52E-04  136 169 1  0.41E-04   0.40   1.45    QN   YES    0:25:17
       51   1    7    0  -852.50661491   -0.28E-07*  0.28E-04  135 171 1  0.18E-04   0.40   1.49    QN   YES    0:25:13
       52   1    6    0  -852.50661492   -0.11E-07*  0.12E-04  154 169 1 -0.87E-05   0.40   1.25    QN   YES    0:25:37
       53   1    5    0  -852.50661493   -0.21E-08   0.19E-04  150 281 1  0.36E-05   0.40   2.50    LS   YES    0:25:57
      Convergence after 53 iterations
       54   1    5    0  -852.50661492    0.33E-08   0.19E-04  136 169 1 -0.73E-05   0.40   2.50    LS   YES    0:26:15

      ************************************************************************************************************************
                                                      Wave function printout:
                       occupation of active orbitals, and spin coupling of open shells (u,d: Spin up or down)
      ************************************************************************************************************************

      Note: transformation to natural orbitals
      has been made, which may change the order of the CSFs.

      printout of CI-coefficients larger than  0.05 for root  1
      energy=  -13852.541926
      conf/sym  1111111     Coeff  Weight
             1  22uuuuu  -0.10712 0.01148
             3  u22uuuu   0.30741 0.09450
             5  2uuu2uu  -0.09912 0.00982
             6  2uuuu2u  -0.25813 0.06663
             8  u2u2uuu  -0.24819 0.06160
             9  u2uu2uu  -0.15057 0.02267
            11  u2uuuu2   0.30051 0.09031
            12  uu22uuu   0.13220 0.01748
            13  uu2u2uu  -0.39261 0.15414
            14  uu2uu2u  -0.06035 0.00364
            15  uu2uuu2  -0.32317 0.10444
            16  uuu22uu   0.11683 0.01365
            17  uuu2u2u  -0.17149 0.02941
            18  uuuu22u   0.40824 0.16666
            19  uuu2uu2   0.24965 0.06233
            21  uuuuu22   0.30071 0.09043

      printout of CI-coefficients larger than  0.05 for root  2
      energy=  -13852.541887
      conf/sym  1111111     Coeff  Weight
             1  22uuuuu   0.14931 0.02229
             2  2u2uuuu  -0.18249 0.03330
             4  2uu2uuu   0.05007 0.00251
             5  2uuu2uu   0.05668 0.00321
             7  2uuuuu2   0.14132 0.01997
             8  u2u2uuu  -0.23035 0.05306
             9  u2uu2uu   0.35302 0.12462
            10  u2uuu2u  -0.22209 0.04932
            12  uu22uuu   0.07299 0.00533
            13  uu2u2uu  -0.25760 0.06636
            14  uu2uu2u  -0.27562 0.07596
            15  uu2uuu2   0.36051 0.12997
            16  uuu22uu   0.25744 0.06627
            17  uuu2u2u   0.27718 0.07683
            18  uuuu22u  -0.22627 0.05120
            19  uuu2uu2  -0.08564 0.00733
            20  uuuu2u2  -0.24244 0.05878
            21  uuuuu22   0.38998 0.15209

      printout of CI-coefficients larger than  0.05 for root  3
      energy=  -13852.541180
      conf/sym  1111111     Coeff  Weight
             2  2u2uuuu   0.24235 0.05873
             3  u22uuuu   0.39074 0.15268
             5  2uuu2uu  -0.30116 0.09070
             6  2uuuu2u   0.16013 0.02564
             8  u2u2uuu  -0.07495 0.00562
             9  u2uu2uu   0.37346 0.13947
            10  u2uuu2u   0.19371 0.03752
            11  u2uuuu2   0.32508 0.10568
            12  uu22uuu  -0.10550 0.01113
            13  uu2u2uu   0.06049 0.00366
            14  uu2uu2u   0.05501 0.00303
            15  uu2uuu2   0.40498 0.16401
            16  uuu22uu  -0.12213 0.01492
            17  uuu2u2u  -0.32315 0.10443
            18  uuuu22u   0.11711 0.01371
            19  uuu2uu2  -0.12831 0.01646
            20  uuuu2u2  -0.11664 0.01360
            21  uuuuu22  -0.18692 0.03494

      printout of CI-coefficients larger than  0.05 for root  4
      energy=  -13852.541013
      conf/sym  1111111     Coeff  Weight
             1  22uuuuu   0.08181 0.00669
             2  2u2uuuu  -0.28687 0.08230
             3  u22uuuu  -0.17178 0.02951
             4  2uu2uuu  -0.13753 0.01891
             6  2uuuu2u   0.32044 0.10268
             8  u2u2uuu   0.18646 0.03477
             9  u2uu2uu  -0.10922 0.01193
            10  u2uuu2u  -0.10841 0.01175
            11  u2uuuu2   0.61285 0.37559
            12  uu22uuu  -0.11154 0.01244
            13  uu2u2uu  -0.38654 0.14941
            14  uu2uu2u   0.07740 0.00599
            15  uu2uuu2  -0.14209 0.02019
            16  uuu22uu  -0.08472 0.00718
            17  uuu2u2u   0.12429 0.01545
            18  uuuu22u  -0.16221 0.02631
            20  uuuu2u2  -0.12096 0.01463
            21  uuuuu22  -0.26796 0.07180

      printout of CI-coefficients larger than  0.05 for root  5
      energy=  -13852.540948
      conf/sym  1111111     Coeff  Weight
             1  22uuuuu   0.58901 0.34693
             2  2u2uuuu   0.09761 0.00953
             3  u22uuuu  -0.05725 0.00328
             4  2uu2uuu  -0.24423 0.05965
             5  2uuu2uu  -0.06197 0.00384
             6  2uuuu2u  -0.20231 0.04093
             7  2uuuuu2  -0.05525 0.00305
             9  u2uu2uu   0.19156 0.03670
            10  u2uuu2u  -0.21039 0.04426
            11  u2uuuu2  -0.10844 0.01176
            12  uu22uuu   0.31974 0.10223
            13  uu2u2uu  -0.13898 0.01932
            14  uu2uu2u  -0.17943 0.03220
            16  uuu22uu   0.05087 0.00259
            18  uuuu22u   0.22874 0.05232
            20  uuuu2u2   0.18746 0.03514
            21  uuuuu22  -0.44126 0.19471

      printout of CI-coefficients larger than  0.05 for root  6
      energy=  -13852.540539
      conf/sym  1111111     Coeff  Weight
             4  2uu2uuu   0.05530 0.00306
             5  2uuu2uu  -0.06025 0.00363
             6  2uuuu2u   0.46010 0.21169
             7  2uuuuu2   0.06889 0.00475
             8  u2u2uuu  -0.38711 0.14985
             9  u2uu2uu  -0.12217 0.01493
            10  u2uuu2u  -0.41197 0.16972
            11  u2uuuu2   0.11359 0.01290
            12  uu22uuu   0.28401 0.08066
            13  uu2u2uu   0.36346 0.13210
            14  uu2uu2u  -0.23374 0.05463
            15  uu2uuu2  -0.23719 0.05626
            16  uuu22uu  -0.05886 0.00346
            17  uuu2u2u  -0.19982 0.03993
            19  uuu2uu2  -0.23024 0.05301
            20  uuuu2u2   0.05377 0.00289
            21  uuuuu22   0.06149 0.00378

      printout of CI-coefficients larger than  0.05 for root  7
      energy=  -13852.540497
      conf/sym  1111111     Coeff  Weight
             1  22uuuuu  -0.24159 0.05837
             2  2u2uuuu   0.16846 0.02838
             3  u22uuuu  -0.27524 0.07576
             4  2uu2uuu  -0.24048 0.05783
             5  2uuu2uu  -0.19446 0.03782
             6  2uuuu2u   0.19141 0.03664
             7  2uuuuu2   0.15507 0.02405
             8  u2u2uuu   0.16382 0.02684
             9  u2uu2uu   0.32048 0.10271
            10  u2uuu2u  -0.19162 0.03672
            12  uu22uuu   0.25785 0.06648
            14  uu2uu2u   0.50301 0.25302
            16  uuu22uu   0.09723 0.00945
            17  uuu2u2u   0.19323 0.03734
            18  uuuu22u   0.31421 0.09873
            19  uuu2uu2   0.06425 0.00413
            21  uuuuu22   0.21039 0.04426

      printout of CI-coefficients larger than  0.05 for root  8
      energy=  -13852.539885
      conf/sym  1111111     Coeff  Weight
             1  22uuuuu   0.06526 0.00426
             2  2u2uuuu  -0.07450 0.00555
             4  2uu2uuu   0.46348 0.21481
             5  2uuu2uu  -0.11901 0.01416
             6  2uuuu2u   0.15706 0.02467
             7  2uuuuu2  -0.16733 0.02800
             8  u2u2uuu   0.12948 0.01677
             9  u2uu2uu  -0.28677 0.08223
            12  uu22uuu   0.34958 0.12220
            13  uu2u2uu   0.09799 0.00960
            15  uu2uuu2   0.24606 0.06055
            16  uuu22uu  -0.05255 0.00276
            17  uuu2u2u   0.30186 0.09112
            18  uuuu22u   0.29737 0.08843
            19  uuu2uu2   0.23343 0.05449
            20  uuuu2u2  -0.39653 0.15724
            21  uuuuu22  -0.13815 0.01909

      printout of CI-coefficients larger than  0.05 for root  9
      energy=  -13852.539860
      conf/sym  1111111     Coeff  Weight
             1  22uuuuu   0.13631 0.01858
             2  2u2uuuu  -0.34992 0.12244
             3  u22uuuu  -0.09462 0.00895
             5  2uuu2uu   0.30553 0.09335
             6  2uuuu2u   0.18915 0.03578
             7  2uuuuu2   0.19649 0.03861
             8  u2u2uuu   0.18283 0.03343
             9  u2uu2uu   0.20386 0.04156
            11  u2uuuu2   0.12411 0.01540
            12  uu22uuu  -0.13605 0.01851
            13  uu2u2uu   0.27831 0.07746
            14  uu2uu2u  -0.14062 0.01977
            15  uu2uuu2   0.07740 0.00599
            16  uuu22uu   0.17789 0.03165
            17  uuu2u2u  -0.30658 0.09399
            18  uuuu22u   0.22243 0.04947
            19  uuu2uu2   0.52002 0.27042
            20  uuuu2u2   0.13335 0.01778
            21  uuuuu22   0.06848 0.00469

      printout of CI-coefficients larger than  0.05 for root 10
      energy=  -13852.539314
      conf/sym  1111111     Coeff  Weight
             1  22uuuuu   0.32012 0.10248
             2  2u2uuuu   0.16104 0.02593
             4  2uu2uuu   0.16739 0.02802
             5  2uuu2uu  -0.20103 0.04041
             6  2uuuu2u   0.05301 0.00281
             7  2uuuuu2   0.52825 0.27905
             8  u2u2uuu  -0.11919 0.01421
             9  u2uu2uu  -0.27481 0.07552
            12  uu22uuu  -0.40810 0.16654
            13  uu2u2uu   0.07200 0.00518
            14  uu2uu2u   0.14709 0.02163
            15  uu2uuu2  -0.08170 0.00667
            16  uuu22uu   0.38875 0.15113
            17  uuu2u2u   0.21028 0.04422
            18  uuuu22u   0.14636 0.02142
            19  uuu2uu2  -0.09694 0.00940
            21  uuuuu22  -0.06450 0.00416

      printout of CI-coefficients larger than  0.05 for root 11
      energy=  -13852.539277
      conf/sym  1111111     Coeff  Weight
             1  22uuuuu   0.11904 0.01417
             2  2u2uuuu   0.37958 0.14408
             3  u22uuuu   0.15501 0.02403
             5  2uuu2uu   0.55641 0.30959
             6  2uuuu2u   0.16185 0.02620
             8  u2u2uuu   0.42937 0.18436
            11  u2uuuu2   0.07715 0.00595
            12  uu22uuu   0.07474 0.00559
            13  uu2u2uu  -0.07442 0.00554
            14  uu2uu2u  -0.08070 0.00651
            15  uu2uuu2  -0.08748 0.00765
            16  uuu22uu   0.18568 0.03448
            17  uuu2u2u  -0.05845 0.00342
            18  uuuu22u   0.17500 0.03063
            19  uuu2uu2  -0.37513 0.14072
            20  uuuu2u2  -0.16076 0.02584
            21  uuuuu22   0.16228 0.02634

      printout of CI-coefficients larger than  0.05 for root 12
      energy=  -13852.507306
      conf/sym  1111111     Coeff  Weight
             1  22uuuuu  -0.22953 0.05269
             2  2u2uuuu  -0.18713 0.03502
             4  2uu2uuu   0.14993 0.02248
             5  2uuu2uu   0.06033 0.00364
             6  2uuuu2u   0.41316 0.17070
             7  2uuuuu2   0.16202 0.02625
             8  u2u2uuu  -0.12050 0.01452
             9  u2uu2uu   0.08546 0.00730
            10  u2uuu2u   0.20633 0.04257
            11  u2uuuu2  -0.46401 0.21531
            12  uu22uuu   0.08424 0.00710
            13  uu2u2uu  -0.50326 0.25327
            16  uuu22uu   0.11376 0.01294
            17  uuu2u2u  -0.17995 0.03238
            18  uuuu22u   0.11607 0.01347
            19  uuu2uu2  -0.10747 0.01155
            20  uuuu2u2   0.09653 0.00932
            21  uuuuu22  -0.25845 0.06680

      printout of CI-coefficients larger than  0.05 for root 13
      energy=  -13852.507128
      conf/sym  1111111     Coeff  Weight
             1  22uuuuu   0.16815 0.02827
             3  u22uuuu  -0.51889 0.26924
             6  2uuuu2u  -0.18193 0.03310
             7  2uuuuu2   0.09028 0.00815
             8  u2u2uuu  -0.06895 0.00475
             9  u2uu2uu  -0.11304 0.01278
            11  u2uuuu2  -0.10421 0.01086
            13  uu2u2uu  -0.09033 0.00816
            14  uu2uu2u   0.09930 0.00986
            15  uu2uuu2   0.07072 0.00500
            16  uuu22uu  -0.12379 0.01532
            17  uuu2u2u  -0.52384 0.27441
            18  uuuu22u   0.09809 0.00962
            19  uuu2uu2  -0.13599 0.01849
            20  uuuu2u2  -0.52372 0.27429
            21  uuuuu22   0.10820 0.01171

      printout of CI-coefficients larger than  0.05 for root 14
      energy=  -13852.506537
      conf/sym  1111111     Coeff  Weight
             1  22uuuuu   0.05448 0.00297
             2  2u2uuuu   0.35888 0.12880
             3  u22uuuu   0.07132 0.00509
             5  2uuu2uu  -0.17624 0.03106
             6  2uuuu2u   0.26890 0.07231
             7  2uuuuu2  -0.28652 0.08210
             8  u2u2uuu   0.13797 0.01904
             9  u2uu2uu  -0.05234 0.00274
            10  u2uuu2u  -0.44497 0.19800
            11  u2uuuu2  -0.25778 0.06645
            12  uu22uuu  -0.37612 0.14146
            13  uu2u2uu  -0.21878 0.04787
            14  uu2uu2u  -0.07941 0.00631
            17  uuu2u2u  -0.13237 0.01752
            18  uuuu22u  -0.12687 0.01610
            19  uuu2uu2   0.38513 0.14832
            20  uuuu2u2  -0.07948 0.00632
            21  uuuuu22   0.08527 0.00727

      printout of CI-coefficients larger than  0.05 for root 15
      energy=  -13852.506468
      conf/sym  1111111     Coeff  Weight
             1  22uuuuu   0.17290 0.02989
             2  2u2uuuu   0.28726 0.08252
             3  u22uuuu   0.07549 0.00570
             4  2uu2uuu   0.06060 0.00367
             5  2uuu2uu   0.42428 0.18002
             6  2uuuu2u   0.05893 0.00347
             7  2uuuuu2   0.18881 0.03565
             8  u2u2uuu  -0.34636 0.11996
            10  u2uuu2u   0.05546 0.00308
            11  u2uuuu2   0.05101 0.00260
            12  uu22uuu   0.24002 0.05761
            13  uu2u2uu  -0.08382 0.00703
            14  uu2uu2u   0.42516 0.18076
            16  uuu22uu  -0.13099 0.01716
            18  uuuu22u  -0.34891 0.12173
            19  uuu2uu2   0.36466 0.13298
            20  uuuu2u2  -0.06884 0.00474
            21  uuuuu22  -0.09638 0.00929

      printout of CI-coefficients larger than  0.05 for root 16
      energy=  -13852.506378
      conf/sym  1111111     Coeff  Weight
             1  22uuuuu   0.34345 0.11795
             2  2u2uuuu  -0.25723 0.06617
             3  u22uuuu   0.11174 0.01249
             4  2uu2uuu   0.23257 0.05409
             5  2uuu2uu   0.13082 0.01711
             6  2uuuu2u   0.09222 0.00850
             7  2uuuuu2  -0.27660 0.07651
             8  u2u2uuu  -0.17709 0.03136
             9  u2uu2uu   0.27723 0.07686
            10  u2uuu2u  -0.05942 0.00353
            11  u2uuuu2  -0.11357 0.01290
            12  uu22uuu  -0.27822 0.07740
            14  uu2uu2u   0.32878 0.10810
            15  uu2uuu2  -0.23523 0.05533
            16  uuu22uu  -0.36221 0.13120
            17  uuu2u2u   0.14196 0.02015
            18  uuuu22u   0.26082 0.06803
            19  uuu2uu2  -0.16919 0.02863
            21  uuuuu22   0.18251 0.03331

      printout of CI-coefficients larger than  0.05 for root 17
      energy=  -13852.506183
      conf/sym  1111111     Coeff  Weight
             1  22uuuuu  -0.23385 0.05469
             2  2u2uuuu  -0.07413 0.00550
             4  2uu2uuu  -0.25704 0.06607
             5  2uuu2uu   0.33314 0.11098
             6  2uuuu2u  -0.05038 0.00254
             7  2uuuuu2  -0.29925 0.08955
             8  u2u2uuu  -0.36831 0.13565
             9  u2uu2uu  -0.18980 0.03602
            10  u2uuu2u  -0.23474 0.05510
            11  u2uuuu2   0.05006 0.00251
            12  uu22uuu  -0.22716 0.05160
            13  uu2u2uu   0.05567 0.00310
            14  uu2uu2u   0.15021 0.02256
            15  uu2uuu2   0.36308 0.13183
            16  uuu22uu   0.26288 0.06911
            18  uuuu22u   0.29093 0.08464
            19  uuu2uu2  -0.07989 0.00638
            21  uuuuu22  -0.26218 0.06874

      printout of CI-coefficients larger than  0.05 for root 18
      energy=  -13852.506125
      conf/sym  1111111     Coeff  Weight
             1  22uuuuu  -0.24286 0.05898
             2  2u2uuuu   0.13505 0.01824
             3  u22uuuu  -0.18003 0.03241
             4  2uu2uuu   0.45356 0.20571
             6  2uuuu2u  -0.22703 0.05154
             7  2uuuuu2  -0.11913 0.01419
             9  u2uu2uu   0.42822 0.18338
            10  u2uuu2u  -0.13391 0.01793
            11  u2uuuu2   0.12074 0.01458
            12  uu22uuu  -0.07384 0.00545
            13  uu2u2uu   0.07892 0.00623
            15  uu2uuu2  -0.35944 0.12920
            16  uuu22uu   0.30948 0.09578
            18  uuuu22u  -0.09208 0.00848
            20  uuuu2u2  -0.20382 0.04154
            21  uuuuu22  -0.33523 0.11238

      printout of CI-coefficients larger than  0.05 for root 19
      energy=  -13852.383147
      conf/sym  1111111     Coeff  Weight
             1  22uuuuu   0.12524 0.01569
             2  2u2uuuu  -0.24135 0.05825
             3  u22uuuu   0.14673 0.02153
             4  2uu2uuu   0.29807 0.08884
             5  2uuu2uu  -0.12136 0.01473
             6  2uuuu2u  -0.11558 0.01336
             7  2uuuuu2  -0.15514 0.02407
             8  u2u2uuu   0.20861 0.04352
             9  u2uu2uu  -0.15388 0.02368
            10  u2uuu2u  -0.24972 0.06236
            12  uu22uuu   0.20217 0.04087
            14  uu2uu2u   0.41157 0.16939
            15  uu2uuu2   0.17531 0.03073
            16  uuu22uu   0.32699 0.10692
            17  uuu2u2u  -0.33950 0.11526
            18  uuuu22u  -0.22350 0.04995
            19  uuu2uu2  -0.16863 0.02844
            20  uuuu2u2   0.28897 0.08350
            21  uuuuu22   0.07745 0.00600

      printout of CI-coefficients larger than  0.05 for root 20
      energy=  -13852.382345
      conf/sym  1111111     Coeff  Weight
             1  22uuuuu  -0.15894 0.02526
             2  2u2uuuu  -0.25150 0.06325
             3  u22uuuu   0.46828 0.21928
             4  2uu2uuu  -0.15813 0.02501
             5  2uuu2uu   0.06825 0.00466
             6  2uuuu2u  -0.18393 0.03383
             7  2uuuuu2   0.40212 0.16170
             8  u2u2uuu   0.21187 0.04489
            10  u2uuu2u  -0.41039 0.16842
            11  u2uuuu2  -0.18957 0.03594
            13  uu2u2uu   0.08850 0.00783
            14  uu2uu2u   0.08506 0.00723
            15  uu2uuu2  -0.11256 0.01267
            16  uuu22uu  -0.18627 0.03470
            20  uuuu2u2  -0.34078 0.11613
            21  uuuuu22  -0.19479 0.03794

      printout of CI-coefficients larger than  0.05 for root 21
      energy=  -13852.380970
      conf/sym  1111111     Coeff  Weight
             1  22uuuuu   0.16478 0.02715
             2  2u2uuuu  -0.17135 0.02936
             3  u22uuuu   0.20510 0.04207
             4  2uu2uuu  -0.38038 0.14469
             5  2uuu2uu  -0.16081 0.02586
             6  2uuuu2u   0.19177 0.03678
             7  2uuuuu2  -0.28345 0.08034
             8  u2u2uuu  -0.06658 0.00443
            10  u2uuu2u   0.31120 0.09684
            11  u2uuuu2  -0.13595 0.01848
            12  uu22uuu   0.09106 0.00829
            13  uu2u2uu   0.20379 0.04153
            14  uu2uu2u   0.13055 0.01704
            15  uu2uuu2  -0.27665 0.07653
            16  uuu22uu   0.42348 0.17934
            18  uuuu22u  -0.17046 0.02906
            19  uuu2uu2   0.06486 0.00421
            20  uuuu2u2  -0.36739 0.13497

      Natural orbitals and occupation numbers for root  1
      sym 1:   1.000000   1.015147   1.595693   1.015147   1.389160   1.595693   1.389160

      Natural orbitals and occupation numbers for root  2
      sym 1:   1.002309   1.000000   1.460971   1.002309   1.536720   1.536720   1.460971

      Natural orbitals and occupation numbers for root  3
      sym 1:   1.000000   1.675288   1.224539   1.100173   1.100173   1.224539   1.675288

      Natural orbitals and occupation numbers for root  4
      sym 1:   1.019132   1.595668   1.019132   1.000000   1.385201   1.385201   1.595668

      Natural orbitals and occupation numbers for root  5
      sym 1:   1.665398   1.665398   1.098660   1.098660   1.000000   1.235942   1.235942

      Natural orbitals and occupation numbers for root  6
      sym 1:   1.000000   1.618541   1.338134   1.338134   1.043325   1.618541   1.043325

      Natural orbitals and occupation numbers for root  7
      sym 1:   1.009202   1.559543   1.431255   1.431255   1.000000   1.559543   1.009202

      Natural orbitals and occupation numbers for root  8
      sym 1:   1.541083   1.000000   1.009252   1.541083   1.449665   1.009252   1.449665

      Natural orbitals and occupation numbers for root  9
      sym 1:   1.565665   1.016867   1.000000   1.565665   1.417468   1.016867   1.417468

      Natural orbitals and occupation numbers for root 10
      sym 1:   1.568324   1.016733   1.016733   1.414943   1.414943   1.000000   1.568324

      Natural orbitals and occupation numbers for root 11
      sym 1:   1.571409   1.405648   1.022943   1.405648   1.571409   1.022943   1.000000

      Natural orbitals and occupation numbers for root 12
      sym 1:   1.349567   1.349567   1.319305   1.000000   1.319305   1.331128   1.331128

      Natural orbitals and occupation numbers for root 13
      sym 1:   1.000000   1.308449   1.308449   1.365910   1.325642   1.365910   1.325642

      Natural orbitals and occupation numbers for root 14
      sym 1:   1.310777   1.354369   1.334854   1.354369   1.000000   1.310777   1.334854

      Natural orbitals and occupation numbers for root 15
      sym 1:   1.342662   1.000000   1.325278   1.332059   1.342662   1.325278   1.332059

      Natural orbitals and occupation numbers for root 16
      sym 1:   1.355879   1.000000   1.332679   1.355879   1.311442   1.311442   1.332679

      Natural orbitals and occupation numbers for root 17
      sym 1:   1.352096   1.332738   1.000000   1.332738   1.352096   1.315166   1.315166

      Natural orbitals and occupation numbers for root 18
      sym 1:   1.360203   1.341645   1.000000   1.360203   1.341645   1.298153   1.298153

      Natural orbitals and occupation numbers for root 19
      sym 1:   1.000000   1.073324   1.288223   1.638453   1.288223   1.638453   1.073324

      Natural orbitals and occupation numbers for root 20
      sym 1:   1.644520   1.644520   1.284079   1.000000   1.071401   1.071401   1.284079

      Natural orbitals and occupation numbers for root 21
      sym 1:   1.654493   1.000000   1.068792   1.068792   1.654493   1.276715   1.276715

      ************************************************************************************************************************
      *                                                                                                                      *
      *                                                    Final results                                                     *
      *                                                                                                                      *
      ************************************************************************************************************************


++    Wave function specifications:
      -----------------------------

      Number of closed shell electrons         322
      Number of electrons in active shells       9
      Max number of holes in RAS1 space          0
      Max nr of electrons in RAS3 space          0
      Number of inactive orbitals              161
      Number of active orbitals                  7
      Number of secondary orbitals             641
      Spin quantum number                      2.5
      State symmetry                             1
--

++    Orbital specifications:
      -----------------------

      Symmetry species                           1
                                                 a
      Frozen orbitals                            0
      Inactive orbitals                        161
      Active orbitals                            7
      RAS1 orbitals                              0
      RAS2 orbitals                              7
      RAS3 orbitals                              0
      Secondary orbitals                       641
      Deleted orbitals                           0
      Number of basis functions                809
--

++    CI expansion specifications:
      ----------------------------

      Number of CSFs                            21
      Number of determinants                    21
      Number of root(s) required                21
      CI roots used                              1     2     3     4     5     6     7     8     9    10
                                                11    12    13    14    15    16    17    18    19    20
                                                21
      weights                                0.048 0.048 0.048 0.048 0.048 0.048 0.048 0.048 0.048 0.048
                                             0.048 0.048 0.048 0.048 0.048 0.048 0.048 0.048 0.048 0.048
                                             0.048
      highest root included in the CI           21
      Root passed to geometry opt.              21
--

++    Final optimization conditions:
      ------------------------------

      Average CI energy                          -13852.50661492
      RASSCF energy for state 21                 -13852.38096963
      Super-CI energy                                -0.00000000
      RASSCF energy change                            0.00000000
      Max change in MO coefficients               0.140E-04
      Max non-diagonal density matrix element     0.186E-04
      Maximum BLB matrix element                 -0.726E-05
      (orbital pair 136, 169 in symmetry   1)
      Norm of electronic gradient            0.384E+00
--


      Final state energy(ies):
      ------------------------

::    RASSCF root number  1 Total energy: -13852.54192615
::    RASSCF root number  2 Total energy: -13852.54188723
::    RASSCF root number  3 Total energy: -13852.54118049
::    RASSCF root number  4 Total energy: -13852.54101334
::    RASSCF root number  5 Total energy: -13852.54094819
::    RASSCF root number  6 Total energy: -13852.54053936
::    RASSCF root number  7 Total energy: -13852.54049657
::    RASSCF root number  8 Total energy: -13852.53988491
::    RASSCF root number  9 Total energy: -13852.53986026
::    RASSCF root number 10 Total energy: -13852.53931437
::    RASSCF root number 11 Total energy: -13852.53927683
::    RASSCF root number 12 Total energy: -13852.50730596
::    RASSCF root number 13 Total energy: -13852.50712848
::    RASSCF root number 14 Total energy: -13852.50653660
::    RASSCF root number 15 Total energy: -13852.50646784
::    RASSCF root number 16 Total energy: -13852.50637759
::    RASSCF root number 17 Total energy: -13852.50618265
::    RASSCF root number 18 Total energy: -13852.50612501
::    RASSCF root number 19 Total energy: -13852.38314730
::    RASSCF root number 20 Total energy: -13852.38234462
::    RASSCF root number 21 Total energy: -13852.38096963

++    Molecular orbitals:
      -------------------

      Pseudonatural active orbitals and approximate occupation numbers


      MOLECULAR ORBITALS FOR SYMMETRY SPECIES 1: a  

      INDEX  ENERGY  OCCUPATION COEFFICIENTS ...
          1-1983.9423    2.0000                                                                                                           
                 1 DY1    1s     ( 1.0000)
          2 -335.2560    2.0000                                                                                                           
                 2 DY1    2s     ( 1.0000)
          3 -298.0669    2.0000                                                                                                           
                 9 DY1    2px    ( 0.6593)  16 DY1    2py    ( 0.4751)  23 DY1    2pz    ( 0.5828)
          4 -298.0669    2.0000                                                                                                           
                 9 DY1    2px    (-0.7367)  16 DY1    2py    ( 0.5629)  23 DY1    2pz    ( 0.3746)
          5 -298.0668    2.0000                                                                                                           
                 9 DY1    2px    (-0.1501)  16 DY1    2py    (-0.6763)  23 DY1    2pz    ( 0.7212)
          6  -76.7410    2.0000                                                                                                           
                 3 DY1    3s     ( 1.0000)
          7  -65.0193    2.0000                                                                                                           
                10 DY1    3px    ( 0.7274)  17 DY1    3py    ( 0.4452)  24 DY1    3pz    ( 0.5222)
          8  -65.0192    2.0000                                                                                                           
                10 DY1    3px    (-0.6746)  17 DY1    3py    ( 0.6034)  24 DY1    3pz    ( 0.4252)
          9  -65.0191    2.0000                                                                                                           
                10 DY1    3px    (-0.1258)  17 DY1    3py    (-0.6616)  24 DY1    3pz    ( 0.7392)
         10  -49.5655    2.0000                                                                                                           
                30 DY1    3d2-   ( 0.6965)  35 DY1    3d1-   ( 0.2997)  40 DY1    3d0    (-0.4525)  45 DY1    3d1+   ( 0.4611)
      
         11  -49.5654    2.0000                                                                                                           
                30 DY1    3d2-   ( 0.1517)  35 DY1    3d1-   ( 0.5984)  45 DY1    3d1+   (-0.5363)  50 DY1    3d2+   (-0.5748)
      
         12  -49.5652    2.0000                                                                                                           
                30 DY1    3d2-   ( 0.6201)  35 DY1    3d1-   (-0.4964)  45 DY1    3d1+   (-0.5754)  50 DY1    3d2+   ( 0.1802)
      
         13  -49.5652    2.0000                                                                                                           
                30 DY1    3d2-   ( 0.3150)  35 DY1    3d1-   (-0.1271)  40 DY1    3d0    ( 0.7190)  45 DY1    3d1+   ( 0.3990)
                50 DY1    3d2+   (-0.4565)
         14  -49.5652    2.0000                                                                                                           
                35 DY1    3d1-   ( 0.5381)  40 DY1    3d0    ( 0.5216)  50 DY1    3d2+   ( 0.6488)
         15  -20.5257    2.0000                                                                                                           
               720 O4     1s     (-0.9998)
         16  -20.5235    2.0000                                                                                                           
               750 O5     1s     ( 0.9998)
[...]
   6      0.577350269190     0.577350269190     0.577350269190     0.006101255491
   7     -0.577350269190     0.577350269190     0.577350269190     0.006101255491
   8      0.577350269190    -0.577350269190     0.577350269190     0.006101255491
   9     -0.577350269190    -0.577350269190     0.577350269190     0.006101255491
  10      0.706896546391     0.706896546391     0.024383301669     0.003242209201
  11     -0.706896546391     0.706896546391     0.024383301669     0.003242209201
  12      0.706896546391    -0.706896546391     0.024383301669     0.003242209201
  13     -0.706896546391    -0.706896546391     0.024383301669     0.003242209201
  14      0.706896546391     0.024383301669     0.706896546391     0.003242209201
  15     -0.706896546391     0.024383301669     0.706896546391     0.003242209201
  16      0.706896546391    -0.024383301669     0.706896546391     0.003242209201
  17     -0.706896546391    -0.024383301669     0.706896546391     0.003242209201
  18      0.024383301669     0.706896546391     0.706896546391     0.003242209201
  19     -0.024383301669     0.706896546391     0.706896546391     0.003242209201
  20      0.024383301669    -0.706896546391     0.706896546391     0.003242209201
  21     -0.024383301669    -0.706896546391     0.706896546391     0.003242209201
  22      0.479468262571     0.479468262571     0.734996850588     0.006011402970
  23     -0.479468262571     0.479468262571     0.734996850588     0.006011402970
  24      0.479468262571    -0.479468262571     0.734996850588     0.006011402970
  25     -0.479468262571    -0.479468262571     0.734996850588     0.006011402970
  26      0.479468262571     0.734996850588     0.479468262571     0.006011402970
  27     -0.479468262571     0.734996850588     0.479468262571     0.006011402970
  28      0.479468262571    -0.734996850588     0.479468262571     0.006011402970
  29     -0.479468262571    -0.734996850588     0.479468262571     0.006011402970
  30      0.734996850588     0.479468262571     0.479468262571     0.006011402970
  31     -0.734996850588     0.479468262571     0.479468262571     0.006011402970
  32      0.734996850588    -0.479468262571     0.479468262571     0.006011402970
  33     -0.734996850588    -0.479468262571     0.479468262571     0.006011402970
  34      0.192753315488     0.192753315488     0.962129055136     0.005981985059
  35     -0.192753315488     0.192753315488     0.962129055136     0.005981985059
  36      0.192753315488    -0.192753315488     0.962129055136     0.005981985059
  37     -0.192753315488    -0.192753315488     0.962129055136     0.005981985059
  38      0.192753315488     0.962129055136     0.192753315488     0.005981985059
  39     -0.192753315488     0.962129055136     0.192753315488     0.005981985059
  40      0.192753315488    -0.962129055136     0.192753315488     0.005981985059
  41     -0.192753315488    -0.962129055136     0.192753315488     0.005981985059
  42      0.962129055136     0.192753315488     0.192753315488     0.005981985059
  43     -0.962129055136     0.192753315488     0.192753315488     0.005981985059
  44      0.962129055136    -0.192753315488     0.192753315488     0.005981985059
  45     -0.962129055136    -0.192753315488     0.192753315488     0.005981985059
  46      0.693035796133     0.693035796133     0.198501311223     0.005964341288
  47     -0.693035796133     0.693035796133     0.198501311223     0.005964341288
  48      0.693035796133    -0.693035796133     0.198501311223     0.005964341288
  49     -0.693035796133    -0.693035796133     0.198501311223     0.005964341288
  50      0.693035796133     0.198501311223     0.693035796133     0.005964341288
  51     -0.693035796133     0.198501311223     0.693035796133     0.005964341288
  52      0.693035796133    -0.198501311223     0.693035796133     0.005964341288
  53     -0.693035796133    -0.198501311223     0.693035796133     0.005964341288
  54      0.198501311223     0.693035796133     0.693035796133     0.005964341288
  55     -0.198501311223     0.693035796133     0.693035796133     0.005964341288
  56      0.198501311223    -0.693035796133     0.693035796133     0.005964341288
  57     -0.198501311223    -0.693035796133     0.693035796133     0.005964341288
  58      0.360830211552     0.360830211552     0.860001812128     0.005443128475
  59     -0.360830211552     0.360830211552     0.860001812128     0.005443128475
  60      0.360830211552    -0.360830211552     0.860001812128     0.005443128475
  61     -0.360830211552    -0.360830211552     0.860001812128     0.005443128475
  62      0.360830211552     0.860001812128     0.360830211552     0.005443128475
  63     -0.360830211552     0.860001812128     0.360830211552     0.005443128475
  64      0.360830211552    -0.860001812128     0.360830211552     0.005443128475
  65     -0.360830211552    -0.860001812128     0.360830211552     0.005443128475
  66      0.860001812128     0.360830211552     0.360830211552     0.005443128475
  67     -0.860001812128     0.360830211552     0.360830211552     0.005443128475
  68      0.860001812128    -0.360830211552     0.360830211552     0.005443128475
  69     -0.860001812128    -0.360830211552     0.360830211552     0.005443128475
  70      0.649848616150     0.649848616150     0.394199888606     0.006067027592
  71     -0.649848616150     0.649848616150     0.394199888606     0.006067027592
  72      0.649848616150    -0.649848616150     0.394199888606     0.006067027592
  73     -0.649848616150    -0.649848616150     0.394199888606     0.006067027592
  74      0.649848616150     0.394199888606     0.649848616150     0.006067027592
  75     -0.649848616150     0.394199888606     0.649848616150     0.006067027592
  76      0.649848616150    -0.394199888606     0.649848616150     0.006067027592
  77     -0.649848616150    -0.394199888606     0.649848616150     0.006067027592
  78      0.394199888606     0.649848616150     0.649848616150     0.006067027592
  79     -0.394199888606     0.649848616150     0.649848616150     0.006067027592
  80      0.394199888606    -0.649848616150     0.649848616150     0.006067027592
  81     -0.394199888606    -0.649848616150     0.649848616150     0.006067027592
  82      0.193294501323     0.981140782843     0.000000000000     0.003007949555
  83     -0.193294501323     0.981140782843     0.000000000000     0.003007949555
  84      0.193294501323    -0.981140782843     0.000000000000     0.003007949555
  85     -0.193294501323    -0.981140782843     0.000000000000     0.003007949555
  86      0.981140782843     0.193294501323     0.000000000000     0.003007949555
  87     -0.981140782843     0.193294501323     0.000000000000     0.003007949555
  88      0.981140782843    -0.193294501323     0.000000000000     0.003007949555
  89     -0.981140782843    -0.193294501323     0.000000000000     0.003007949555
  90      0.193294501323     0.000000000000     0.981140782843     0.006015899110
  91     -0.193294501323     0.000000000000     0.981140782843     0.006015899110
  92      0.981140782843     0.000000000000     0.193294501323     0.006015899110
  93     -0.981140782843     0.000000000000     0.193294501323     0.006015899110
  94      0.000000000000     0.193294501323     0.981140782843     0.006015899110
  95      0.000000000000    -0.193294501323     0.981140782843     0.006015899110
  96      0.000000000000     0.981140782843     0.193294501323     0.006015899110
  97      0.000000000000    -0.981140782843     0.193294501323     0.006015899110
  98      0.380049491990     0.924966152699     0.000000000000     0.002881964603
  99     -0.380049491990     0.924966152699     0.000000000000     0.002881964603
 100      0.380049491990    -0.924966152699     0.000000000000     0.002881964603
 101     -0.380049491990    -0.924966152699     0.000000000000     0.002881964603
 102      0.924966152699     0.380049491990     0.000000000000     0.002881964603
 103     -0.924966152699     0.380049491990     0.000000000000     0.002881964603
 104      0.924966152699    -0.380049491990     0.000000000000     0.002881964603
 105     -0.924966152699    -0.380049491990     0.000000000000     0.002881964603
 106      0.380049491990     0.000000000000     0.924966152699     0.005763929206
 107     -0.380049491990     0.000000000000     0.924966152699     0.005763929206
 108      0.924966152699     0.000000000000     0.380049491990     0.005763929206
 109     -0.924966152699     0.000000000000     0.380049491990     0.005763929206
 110      0.000000000000     0.380049491990     0.924966152699     0.005763929206
 111      0.000000000000    -0.380049491990     0.924966152699     0.005763929206
 112      0.000000000000     0.924966152699     0.380049491990     0.005763929206
 113      0.000000000000    -0.924966152699     0.380049491990     0.005763929206
 114      0.289955882550     0.793453785658     0.535123047718     0.005916715253
 115     -0.289955882550     0.793453785658     0.535123047718     0.005916715253
 116      0.289955882550    -0.793453785658     0.535123047718     0.005916715253
 117     -0.289955882550    -0.793453785658     0.535123047718     0.005916715253
 118      0.289955882550     0.535123047718     0.793453785658     0.005916715253
 119     -0.289955882550     0.535123047718     0.793453785658     0.005916715253
 120      0.289955882550    -0.535123047718     0.793453785658     0.005916715253
 121     -0.289955882550    -0.535123047718     0.793453785658     0.005916715253
 122      0.793453785658     0.289955882550     0.535123047718     0.005916715253
 123     -0.793453785658     0.289955882550     0.535123047718     0.005916715253
 124      0.793453785658    -0.289955882550     0.535123047718     0.005916715253
 125     -0.793453785658    -0.289955882550     0.535123047718     0.005916715253
 126      0.793453785658     0.535123047718     0.289955882550     0.005916715253
 127     -0.793453785658     0.535123047718     0.289955882550     0.005916715253
 128      0.793453785658    -0.535123047718     0.289955882550     0.005916715253
 129     -0.793453785658    -0.535123047718     0.289955882550     0.005916715253
 130      0.535123047718     0.289955882550     0.793453785658     0.005916715253
 131     -0.535123047718     0.289955882550     0.793453785658     0.005916715253
 132      0.535123047718    -0.289955882550     0.793453785658     0.005916715253
 133     -0.535123047718    -0.289955882550     0.793453785658     0.005916715253
 134      0.535123047718     0.793453785658     0.289955882550     0.005916715253
 135     -0.535123047718     0.793453785658     0.289955882550     0.005916715253
 136      0.535123047718    -0.793453785658     0.289955882550     0.005916715253
 137     -0.535123047718    -0.793453785658     0.289955882550     0.005916715253
 138      0.096841214551     0.828080150669     0.552182074349     0.006072040053
 139     -0.096841214551     0.828080150669     0.552182074349     0.006072040053
 140      0.096841214551    -0.828080150669     0.552182074349     0.006072040053
 141     -0.096841214551    -0.828080150669     0.552182074349     0.006072040053
 142      0.096841214551     0.552182074349     0.828080150669     0.006072040053
 143     -0.096841214551     0.552182074349     0.828080150669     0.006072040053
 144      0.096841214551    -0.552182074349     0.828080150669     0.006072040053
 145     -0.096841214551    -0.552182074349     0.828080150669     0.006072040053
 146      0.828080150669     0.096841214551     0.552182074349     0.006072040053
 147     -0.828080150669     0.096841214551     0.552182074349     0.006072040053
 148      0.828080150669    -0.096841214551     0.552182074349     0.006072040053
 149     -0.828080150669    -0.096841214551     0.552182074349     0.006072040053
 150      0.828080150669     0.552182074349     0.096841214551     0.006072040053
 151     -0.828080150669     0.552182074349     0.096841214551     0.006072040053
 152      0.828080150669    -0.552182074349     0.096841214551     0.006072040053
 153     -0.828080150669    -0.552182074349     0.096841214551     0.006072040053
 154      0.552182074349     0.096841214551     0.828080150669     0.006072040053
 155     -0.552182074349     0.096841214551     0.828080150669     0.006072040053
 156      0.552182074349    -0.096841214551     0.828080150669     0.006072040053
 157     -0.552182074349    -0.096841214551     0.828080150669     0.006072040053
 158      0.552182074349     0.828080150669     0.096841214551     0.006072040053
 159     -0.552182074349     0.828080150669     0.096841214551     0.006072040053
 160      0.552182074349    -0.828080150669     0.096841214551     0.006072040053
 161     -0.552182074349    -0.828080150669     0.096841214551     0.006072040053
 162      0.183343464704     0.907465826531     0.378009189874     0.005664374808
 163     -0.183343464704     0.907465826531     0.378009189874     0.005664374808
 164      0.183343464704    -0.907465826531     0.378009189874     0.005664374808
 165     -0.183343464704    -0.907465826531     0.378009189874     0.005664374808
 166      0.183343464704     0.378009189874     0.907465826531     0.005664374808
 167     -0.183343464704     0.378009189874     0.907465826531     0.005664374808
 168      0.183343464704    -0.378009189874     0.907465826531     0.005664374808
 169     -0.183343464704    -0.378009189874     0.907465826531     0.005664374808
 170      0.907465826531     0.183343464704     0.378009189874     0.005664374808
 171     -0.907465826531     0.183343464704     0.378009189874     0.005664374808
 172      0.907465826531    -0.183343464704     0.378009189874     0.005664374808
 173     -0.907465826531    -0.183343464704     0.378009189874     0.005664374808
 174      0.907465826531     0.378009189874     0.183343464704     0.005664374808
 175     -0.907465826531     0.378009189874     0.183343464704     0.005664374808
 176      0.907465826531    -0.378009189874     0.183343464704     0.005664374808
 177     -0.907465826531    -0.378009189874     0.183343464704     0.005664374808
 178      0.378009189874     0.183343464704     0.907465826531     0.005664374808
 179     -0.378009189874     0.183343464704     0.907465826531     0.005664374808
 180      0.378009189874    -0.183343464704     0.907465826531     0.005664374808
 181     -0.378009189874    -0.183343464704     0.907465826531     0.005664374808
 182      0.378009189874     0.907465826531     0.183343464704     0.005664374808
 183     -0.378009189874     0.907465826531     0.183343464704     0.005664374808
 184      0.378009189874    -0.907465826531     0.183343464704     0.005664374808
 185     -0.378009189874    -0.907465826531     0.183343464704     0.005664374808
  --------------------------------------------------------------------------------
  The cut-off energy for the exact diagonalization of the Zeeman Hamiltonian is:
  E =  1300.907094000 cm(-1).
  The exact diagonalization of the Zeeman Hamiltonian included  16 exchange states.
  The magnetization vector was not calculated.
  Computation of the Zeeman splitting was not requested.

                         HIGH-FIELD POWDER MAGNETIZATION
                              (Units: Bohr magneton)

-----------|---------------|---------------|---------------|---------------|
   H(T)    |STATISTICAL SUM|     2.000 K.  |     4.000 K.  |     6.000 K.  |
-----------|---------------|---------------|---------------|---------------|
  0.000100 |     1.9996509 |  0.0010495031 |  0.0005272413 |  0.0003531540 |
  0.100000 |     1.7052557 |  1.0281566872 |  0.5245131817 |  0.3523421668 |
  0.200000 |     1.4973858 |  1.9418091744 |  1.0331339015 |  0.6998775331 |
  0.300000 |     1.3507845 |  2.6789960315 |  1.5121857866 |  1.0381096734 |
  0.400000 |     1.2473933 |  3.2364501653 |  1.9517514494 |  1.3631178385 |
  0.500000 |     1.1744761 |  3.6434874609 |  2.3462117722 |  1.6717435048 |
  0.600000 |     1.1230509 |  3.9369856551 |  2.6938834058 |  1.9616829283 |
  0.700000 |     1.0867830 |  4.1491124016 |  2.9961191908 |  2.2314895129 |
  0.800000 |     1.0612048 |  4.3042017864 |  3.2562598413 |  2.4805040395 |
  0.900000 |     1.0431656 |  4.4195075269 |  3.4787017660 |  2.7087376983 |
  1.000000 |     1.0304432 |  4.5069220117 |  3.6681967994 |  2.9167328862 |
  1.100000 |     1.0214707 |  4.5745686902 |  3.8293929959 |  3.1054221874 |
  1.200000 |     1.0151426 |  4.6280063624 |  3.9665732196 |  3.2759995029 |
  1.300000 |     1.0106797 |  4.6710693947 |  4.0835346001 |  3.4298109974 |
  1.400000 |     1.0075322 |  4.7064335230 |  4.1835579973 |  3.5682685245 |
  1.500000 |     1.0053123 |  4.7359915498 |  4.2694292229 |  3.6927848184 |
  1.600000 |     1.0037467 |  4.7611021547 |  4.3434861848 |  3.8047278350 |
  1.700000 |     1.0026425 |  4.7827553225 |  4.4076759009 |  3.9053908375 |
  1.800000 |     1.0018637 |  4.8016832005 |  4.4636121776 |  3.9959747496 |
  1.900000 |     1.0013145 |  4.8184351480 |  4.5126291819 |  4.0775796331 |
  2.000000 |     1.0009271 |  4.8334291395 |  4.5558288269 |  4.1512026505 |
  2.100000 |     1.0006539 |  4.8469874102 |  4.5941214288 |  4.2177404164 |
  2.200000 |     1.0004612 |  4.8593614909 |  4.6282599048 |  4.2779941409 |
  2.300000 |     1.0003253 |  4.8707500159 |  4.6588681609 |  4.3326763902 |
  2.400000 |     1.0002294 |  4.8813115534 |  4.6864644506 |  4.3824186311 |
  2.500000 |     1.0001618 |  4.8911739617 |  4.7114804868 |  4.4277789902 |
  2.600000 |     1.0001141 |  4.9004412959 |  4.7342770228 |  4.4692498517 |
  2.700000 |     1.0000805 |  4.9091989657 |  4.7551565330 |  4.5072650638 |
  2.800000 |     1.0000568 |  4.9175176284 |  4.7743735244 |  4.5422066216 |
  2.900000 |     1.0000401 |  4.9254561606 |  4.7921429245 |  4.5744107649 |
  3.000000 |     1.0000283 |  4.9330639488 |  4.8086469118 |  4.6041734763 |
  3.100000 |     1.0000199 |  4.9403826715 |  4.8240404847 |  4.6317553938 |
  3.200000 |     1.0000141 |  4.9474476996 |  4.8384560124 |  4.6573861687 |
  3.300000 |     1.0000099 |  4.9542892055 |  4.8520069614 |  4.6812683135 |
  3.400000 |     1.0000070 |  4.9609330496 |  4.8647909552 |  4.7035805830 |
  3.500000 |     1.0000049 |  4.9674014929 |  4.8768922928 |  4.7244809393 |
  3.600000 |     1.0000035 |  4.9737137761 |  4.8883840289 |  4.7441091433 |
  3.700000 |     1.0000025 |  4.9798865910 |  4.8993296954 |  4.7625890182 |
  3.800000 |     1.0000017 |  4.9859344692 |  4.9097847325 |  4.7800304225 |
  3.900000 |     1.0000012 |  4.9918701020 |  4.9197976808 |  4.7965309706 |
  4.000000 |     1.0000009 |  4.9977046076 |  4.9294111777 |  4.8121775310 |
  4.100000 |     1.0000006 |  5.0034477534 |  4.9386627937 |  4.8270475318 |
  4.200000 |     1.0000004 |  5.0091081435 |  4.9475857347 |  4.8412100985 |
  4.300000 |     1.0000003 |  5.0146933759 |  4.9562094364 |  4.8547270451 |
  4.400000 |     1.0000002 |  5.0202101768 |  4.9645600661 |  4.8676537397 |
  4.500000 |     1.0000002 |  5.0256645136 |  4.9726609499 |  4.8800398586 |
  4.600000 |     1.0000001 |  5.0310616928 |  4.9805329361 |  4.8919300468 |
  4.700000 |     1.0000001 |  5.0364064425 |  4.9881947058 |  4.9033644938 |
  4.800000 |     1.0000001 |  5.0417029841 |  4.9956630397 |  4.9143794389 |
  4.900000 |     1.0000000 |  5.0469550941 |  5.0029530462 |  4.9250076136 |
  5.000000 |     1.0000000 |  5.0521661573 |  5.0100783598 |  4.9352786297 |
-----------|---------------|---------------|---------------|---------------|
--- Stop Module: single_aniso at Thu Nov 21 02:55:42 2024 /rc=_RC_ALL_IS_WELL_ ---
*** files: xmldump
    saved to directory /media/korden/5fb66ce1-8053-4a4f-9303-c4fa91c2cea8/home/korden/calc/orca/Artem/Alisuk
--- Module single_aniso spent 20 seconds ---

>>> COPY alisuk.aniso /media/korden/5fb66ce1-8053-4a4f-9303-c4fa91c2cea8/home/korden/calc/orca/Artem/Alisuk/alisuk.aniso

    Timing: Wall=95009.43 User=93729.95 System=980.81
