   This run of MOLCAS is using the pymolcas driver

                             OPE
                             OPE          NMOL  CASOP  ENMOLC A   SO
                 OPE        NMOLC        AS  OP EN  MO LC     AS  OP
                OPENM       OL CA        SO  PE NM  OL CA     SOP EN
                OP EN      MO   LC       AS  OP ENMOL  CASO   PENMOL
                OP  EN     MO   LC       AS  OP EN     MO     LC ASO
               OP   E  NMOL  C  AS       OP  EN MO     LC     AS  OP
               OP  E   NMO   LC AS        OPEN  MO     LCASOP EN   M
               O  PEN   MO  LCA  SO
            OPE   NMO   L   CAS    OP
        OPENMOL  CASOP     ENMOL   CASOPE
     OPENMOLCA   SOPENMOLCASOPEN   MOLCASOPE
    OPENMOLCAS   OP           EN   MOL    CAS
    OPENMOLCAS       OP  ENM        O     LCA
    OPENMOLCAS    OPEN  MOLCASO     P  E  NMO
    OPENMOLCAS     OP               E  N  MOL
    OPENMOLCA   SO           PENM   O  L  CAS    OPEN    MO    LCAS
    OPENMOLCA   SOP           ENM   O  L  CAS   OP  EN  MOLC  AS   O
    OPENMOLCA   SOPE           NM      O  LCA   S      OP  EN MO
    OPENMOLC                AS         O  PEN   M      OL  CA  SOPE
    OPENMO        LCASOPE  NMOL        C  ASO   P      ENMOLC     AS
    OPE     NMO      LCA  SO     P     E   NM   OL  CA SO  PE N   MO
          OPENMOLCA            SOPE   NMO        LCAS  O    P  ENMO
     OPENMOLCASOPENMOLCASOPENMOLCASOPENMOLCA
        OPENMOLCASOPENMOLCASOPENMOLCASOPE
            OPENMOLCASOPENMOLCASOPENM
               OPENMOLCASOPENMOLCA        version: v19.11 ?
                   OPENMOLCASO
                       OPE                tag:

 OpenMolcas is free software; you can redistribute it and/or modify it
 under the terms of the GNU Lesser General Public License version 2.1.
 OpenMolcas is distributed in the hope that it will be useful, but it
 is provided "as is" and without any express or implied warranties.
 For more details see the full text of the license in the file
 LICENSE or in <http://www.gnu.org/licenses/>.

                 Copyright (C) The OpenMolcas Authors
           For the author list and the recommended citation,
                   consult the file CONTRIBUTORS.md

           *************************************************
           * pymolcas version py2.06                       *
           *   build 99e611e35fc7aec87fd6f34cfa558dd4      *
           *   (after the EMIL interpreter by V. Veryazov) *
           *************************************************


   -------------------------------------------------------------------------------------------------------------------------------
  |
  |              Project: artion_1
  |       Submitted from: /media/korden/5fb66ce1-8053-4a4f-9303-c4fa91c2cea8/home/korden/calc/orca/Artem/binucliar_Dyacac_artion_1
  |         Scratch area: /tmp/artion_1
  |      Save outputs to: /media/korden/5fb66ce1-8053-4a4f-9303-c4fa91c2cea8/home/korden/calc/orca/Artem/binucliar_Dyacac_artion_1
  |               Molcas: /usr/share/openmolcas
  |
  | Scratch area is NOT empty
  |
  |        MOLCAS_COLOR = YES
  |       MOLCAS_DRIVER = /usr/bin/pymolcas
  | MOLCAS_KEEP_WORKDIR = YES
  |      MOLCAS_MAXITER = 100
  |       MOLCAS_MOLDEN = YES
  |  MOLCAS_NEW_WORKDIR = NO
  |       MOLCAS_NPROCS = 1
  |        MOLCAS_PRINT = NORMAL
  |         MOLCAS_SAVE = ORIG
  |       MOLCAS_SOURCE = /home/korden/build
  |    MOLCAS_STRUCTURE = 0
  |         MOLCAS_TRAP = YES
  |
   -------------------------------------------------------------------------------------------------------------------------------

++ ---------   Input file   ---------

&GATEWAY
Douglas-Kroll

AMFI
ANGM
 8.870292 10.089420 14.978746  Angstrom

Basis Set
N.ANO-RCC-MB.
 N1    7.111450 10.426756 10.526706    Angstrom
 N2    8.583181 10.293506 12.390568    Angstrom
 N3    6.477678 9.914283 14.013931    Angstrom
 N4    5.005948 10.047532 12.150069    Angstrom
End of Basis Set

Basis Set
C.ANO-RCC-MB.
 C1    7.371154 10.271885 11.818771    Angstrom
 C2    8.182516 10.613634 9.730363    Angstrom
 C3    9.464394 10.633276 10.217494    Angstrom
 C4    9.624787 10.478125 11.564775    Angstrom
 C5    6.217974 10.069153 12.721866    Angstrom
 C6    5.406613 9.727405 14.810274    Angstrom
 C7    4.124734 9.707762 14.323143    Angstrom
 C8    3.964342 9.862913 12.975862    Angstrom
 C9    6.624454 13.898781 12.596709    Angstrom
 C10    7.430518 14.357357 13.790611    Angstrom
 C11    8.451622 13.319388 14.197985    Angstrom
 C12    9.803219 13.641652 14.169764    Angstrom
 C13    10.822533 12.713412 14.340321    Angstrom
 C14    5.496605 10.961202 18.567446    Angstrom
 C15    6.840761 10.648129 19.125746    Angstrom
 C16    7.915359 10.241234 18.130623    Angstrom
 C17    9.047251 9.599120 18.628798    Angstrom
 C18    10.198707 9.349551 17.893805    Angstrom
 C19    11.395609 8.753562 18.598122    Angstrom
 C20    12.212535 7.842895 17.724476    Angstrom
 C21    7.343201 5.822267 16.072889    Angstrom
 C22    8.285836 6.849791 15.467963    Angstrom
 C23    9.509748 6.419478 14.930523    Angstrom
 C24    10.399511 7.229305 14.260564    Angstrom
 C25    13.013395 13.056695 15.485142    Angstrom
 C26    12.268270 13.182356 14.159947    Angstrom
 C27    11.773927 6.711268 13.840919    Angstrom
 C28    11.941228 5.212733 13.806562    Angstrom
 C29    6.414603 6.371476 17.091328    Angstrom
End of Basis Set

Basis Set
H.ANO-RCC-MB.
 H1    8.045208 10.737130 8.798874    Angstrom
 H2    10.211030 10.749625 9.640949    Angstrom
 H3    10.501370 10.502813 11.929829    Angstrom
 H4    5.543920 9.603908 15.741763    Angstrom
 H5    3.378099 9.591413 14.899688    Angstrom
 H6    3.087759 9.838225 12.610808    Angstrom
 H7    5.962266 14.583428 12.367168    Angstrom
 H8    7.222761 13.753686 11.834489    Angstrom
 H9    6.165132 13.060581 12.815354    Angstrom
 H10    6.820741 14.533247 14.550180    Angstrom
 H11    7.893731 15.203272 13.567806    Angstrom
 H12    10.044646 14.549325 14.026348    Angstrom
 H13    4.895795 11.228285 19.293983    Angstrom
 H14    5.574520 11.695041 17.921928    Angstrom
 H15    5.136432 10.168532 18.119211    Angstrom
 H16    7.162399 11.444375 19.618191    Angstrom
 H17    6.737123 9.916262 19.783691    Angstrom
 H18    9.029217 9.312056 19.533611    Angstrom
 H19    11.082232 8.243526 19.387016    Angstrom
 H20    11.974472 9.487197 18.924685    Angstrom
 H21    11.627542 7.170417 17.316732    Angstrom
 H22    12.646763 8.368221 17.020870    Angstrom
 H23    12.895340 7.395440 18.267056    Angstrom
 H24    7.881399 5.103108 16.488239    Angstrom
 H25    6.808875 5.415149 15.345493    Angstrom
 H26    9.739707 5.503220 15.035606    Angstrom
 H27    12.553250 13.596265 16.166660    Angstrom
 H28    13.028741 12.122032 15.764660    Angstrom
 H29    13.927862 13.387061 15.374353    Angstrom
 H30    12.279384 14.123293 13.860073    Angstrom
 H31    12.717094 12.628531 13.477448    Angstrom
 H32    12.447819 7.082534 14.464055    Angstrom
 H33    11.977123 7.066096 12.939885    Angstrom
 H34    11.840773 4.850717 14.711498    Angstrom
 H35    11.258337 4.821038 13.221207    Angstrom
 H36    12.831312 4.990401 13.462343    Angstrom
 H37    6.934795 6.749005 17.833117    Angstrom
 H38    5.866053 7.073610 16.687033    Angstrom
 H39    5.839376 5.655127 17.427471    Angstrom
 H40    11.941174 7.078434 12.887147    Angstrom
End of Basis Set

Basis Set
Dy.ANO-RCC-MB.
 Dy1    8.870292 10.089420 14.978746    Angstrom
End of Basis Set

Basis Set
O.ANO-RCC-MB.
 O1    7.997471 12.203593 14.550144    Angstrom
 O2    10.648798 11.467804 14.503516    Angstrom
 O3    7.715113 10.558825 16.919542    Angstrom
 O4    10.332982 9.611232 16.663092    Angstrom
 O5    7.900040 8.049685 15.465509    Angstrom
 O6    10.226591 8.467516 14.023747    Angstrom
End of Basis Set

&SEWARD
HIGH Cholesky

&RASSCF
SYMM
1
CIMX
200
charge
+1
Spin
6
ciroot
21 21 1
Nactel
9 0 0
Ras2
7
ORBL
nocore
ORBA
compact

>>> COPY $Project.JobIph JOB001

&RASSI
spinorbit
nrofjobiphs=1 21
1 2 3 4 5 6 7 8 9 10 11 12 13 14 15 16 17 18 19 20 21
mees
PROP
3
'ANGMOM' 1
'ANGMOM' 2
'ANGMOM' 3

&SINGLE_ANISO
MLTP
8
2 2 2 2  2 2 2 2
CRYS
Dy
XFIE
0.5
TINT
0 300 301
HINT
0 5 51
TMAG
3 2.0 4.0 6.0
UBAR

>>> COPY $Project.aniso $CurrDir/K1648_artion1_single_ion.aniso

-- ----------------------------------

*** symbolic link created: INPORB -> artion_1.GssOrb
--- Start Module: gateway at Thu Mar  6 10:48:39 2025 ---

()()()()()()()()()()()()()()()()()()()()()()()()()()()()()()()()()()()()()()()()()()()()()()()()()()

                                              &GATEWAY

                                   only a single process is used
                       available to each process: 32 GB of memory, 1 thread?
                                            pid: 230110
()()()()()()()()()()()()()()()()()()()()()()()()()()()()()()()()()()()()()()()()()()()()()()()()()()


++    Symmetry information:
      ---------------------

                    Character Table for C1 

                             E  
                    a        1  x, y, xy, Rz, z, xz, Ry, yz, Rx, I
--


++    Basis set information:
      ----------------------


      Basis set label: N.ANO-RCC...2S1P.

      Electronic valence basis set:
      ------------------
      Associated Effective Charge   7.000000 au
      Associated Actual Charge      7.000000 au
      Nuclear Model: Point charge

      Shell  nPrim  nBasis  Cartesian Spherical Contaminant
         s      14       2        X                  
         p       9       1        X                  


      Basis set label: C.ANO-RCC...2S1P.

      Electronic valence basis set:
      ------------------
      Associated Effective Charge   6.000000 au
      Associated Actual Charge      6.000000 au
      Nuclear Model: Point charge

      Shell  nPrim  nBasis  Cartesian Spherical Contaminant
         s      14       2        X                  
         p       9       1        X                  


      Basis set label: H.ANO-RCC...1S.

      Electronic valence basis set:
      ------------------
      Associated Effective Charge   1.000000 au
      Associated Actual Charge      1.000000 au
      Nuclear Model: Point charge

      Shell  nPrim  nBasis  Cartesian Spherical Contaminant
         s       8       1        X                  


      Basis set label: DY.ANO-RCC...6S5P3D1F.

      Electronic valence basis set:
      ------------------
      Associated Effective Charge  66.000000 au
      Associated Actual Charge     66.000000 au
      Nuclear Model: Point charge

      Shell  nPrim  nBasis  Cartesian Spherical Contaminant
         s      25       6        X                  
         p      22       5        X                  
         d      15       3                 X         
         f      11       1                 X         


      Basis set label: O.ANO-RCC...2S1P.

      Electronic valence basis set:
      ------------------
      Associated Effective Charge   8.000000 au
      Associated Actual Charge      8.000000 au
      Nuclear Model: Point charge

      Shell  nPrim  nBasis  Cartesian Spherical Contaminant
         s      14       2        X                  
         p       9       1        X                  
--


++    Molecular structure info:
      -------------------------

                    ************************************************ 
                    **** Cartesian Coordinates / Bohr, Angstrom **** 
                    ************************************************ 

     Center  Label                x              y              z                     x              y              z
        1      N1              13.438693      19.703713      19.892591              7.111450      10.426756      10.526706
        2      N2              16.219861      19.451907      23.414780              8.583181      10.293506      12.390568
        3      N3              12.241037      18.735280      26.482492              6.477678       9.914283      14.013931
        4      N4               9.459871      18.987084      22.960303              5.005948      10.047532      12.150069
        5      C1              13.929462      19.411049      22.334240              7.371154      10.271885      11.818771
        6      C2              15.462714      20.056861      18.387721              8.182516      10.613634       9.730363
        7      C3              17.885113      20.093979      19.308265              9.464394      10.633276      10.217494
        8      C4              18.188211      19.800787      21.854257              9.624787      10.478125      11.564775
        9      C5              11.750268      19.027941      24.040843              6.217974      10.069153      12.721866
       10      C6              10.217018      18.382131      27.987362              5.406613       9.727405      14.810274
       11      C7               7.794618      18.345011      27.066818              4.124734       9.707762      14.323143
       12      C8               7.491521      18.638204      24.520825              3.964342       9.862913      12.975862
       13      C9              12.518404      26.264890      23.804330              6.624454      13.898781      12.596709
       14      C10             14.041644      27.131473      26.060478              7.430518      14.357357      13.790611
       15      C11             15.971251      25.169995      26.830303              8.451622      13.319388      14.197985
       16      C12             18.525399      25.778986      26.776973              9.803219      13.641652      14.169764
       17      C13             20.451623      24.024867      27.099279             10.822533      12.713412      14.340321
       18      C14             10.387078      20.713670      35.087388              5.496605      10.961202      18.567446
       19      C15             12.927165      20.122048      36.142422              6.840761      10.648129      19.125746
       20      C16             14.957861      19.353127      34.261912              7.915359      10.241234      18.130623
       21      C17             17.096827      18.139708      35.203326              9.047251       9.599120      18.628798
       22      C18             19.272763      17.668091      33.814391             10.198707       9.349551      17.893805
       23      C19             21.534580      16.541835      35.145357             11.395609       8.753562      18.598122
       24      C20             23.078346      14.820924      33.494405             12.212535       7.842895      17.724476
       25      C21             13.876639      11.002490      30.373358              7.343201       5.822267      16.072889
       26      C22             15.657961      12.944229      29.230214              8.285836       6.849791      15.467963
       27      C23             17.970819      12.131055      28.214599              9.509748       6.419478      14.930523
       28      C24             19.652228      13.661407      26.948560             10.399511       7.229305      14.260564
       29      C25             24.591753      24.673578      29.262677             13.013395      13.056695      15.485142
       30      C26             23.183670      24.911043      26.758422             12.268270      13.182356      14.159947
       31      C27             22.249497      12.682458      26.155546             11.773927       6.711268      13.840919
       32      C28             22.565651       9.850638      26.090621             11.941228       5.212733      13.806562
       33      C29             12.121843      12.040345      32.297929              6.414603       6.371476      17.091328
       34      H1              15.203240      20.290235      16.627462              8.045208      10.737130       8.798874
       35      H2              19.296050      20.313847      18.218753             10.211030      10.749625       9.640949
       36      H3              19.844713      19.847440      22.544110             10.501370      10.502813      11.929829
       37      H4              10.476490      18.148756      29.747621              5.543920       9.603908      15.741763
       38      H5               6.383682      18.125144      28.156330              3.378099       9.591413      14.899688
       39      H6               5.835019      18.591551      23.830973              3.087759       9.838225      12.610808
       40      H7              11.267050      27.558685      23.370560              5.962266      14.583428      12.367168
       41      H8              13.649040      25.990700      22.363943              7.222761      13.753686      11.834489
       42      H9              11.650411      24.680921      24.217509              6.165132      13.060581      12.815354
       43      H10             12.889332      27.463857      27.495855              6.820741      14.533247      14.550180
       44      H11             14.916990      28.730020      25.639437              7.893731      15.203272      13.567806
       45      H12             18.981630      27.494240      26.505956             10.044646      14.549325      14.026348
       46      H13              9.251712      21.218383      36.460344              4.895795      11.228285      19.293983
       47      H14             10.534316      22.100425      33.867536              5.574520      11.695041      17.921928
       48      H15              9.706450      19.215741      34.240346              5.136432      10.168532      18.119211
       49      H16             13.534973      21.626734      37.073008              7.162399      11.444375      19.618191
       50      H17             12.731317      18.739019      37.385758              6.737123       9.916262      19.783691
       51      H18             17.062747      17.597235      36.913175              9.029217       9.312056      19.533611
       52      H19             20.942383      15.578006      36.636151             11.082232       8.243526      19.387016
       53      H20             22.628473      17.928204      35.762472             11.974472       9.487197      18.924685
       54      H21             21.972870      13.550124      32.723881             11.627542       7.170417      17.316732
       55      H22             23.898918      15.813646      32.164783             12.646763       8.368221      17.020870
       56      H23             24.368661      13.975356      34.519733             12.895340       7.395440      18.267056
       57      H24             14.893686       9.643477      31.158256              7.881399       5.103108      16.488239
       58      H25             12.866909      10.233149      28.998779              6.808875       5.415149      15.345493
       59      H26             18.405379      10.399579      28.413177              9.739707       5.503220      15.035606
       60      H27             23.722204      25.693217      30.550560             12.553250      13.596265      16.166660
       61      H28             24.620752      22.907321      29.790890             13.028741      12.122032      15.764660
       62      H29             26.319845      25.297879      29.053317             13.927862      13.387061      15.374353
       63      H30             23.204673      26.689156      26.191742             12.279384      14.123293      13.860073
       64      H31             24.031825      23.864465      25.468686             12.717094      12.628531      13.477448
       65      H32             23.522969      13.384050      27.333103             12.447819       7.082534      14.464055
       66      H33             22.633482      13.352986      24.452839             11.977123       7.066096      12.939885
       67      H34             22.375818       9.166527      27.800702             11.840773       4.850717      14.711498
       68      H35             21.275174       9.110441      24.984460             11.258337       4.821038      13.221207
       69      H36             24.247665       9.430491      25.440141             12.831312       4.990401      13.462343
       70      H37             13.104863      12.753771      33.699707              6.934795       6.749005      17.833117
       71      H38             11.085234      13.367186      31.533922              5.866053       7.073610      16.687033
       72      H39             11.034821      10.686641      32.933147              5.839376       5.655127      17.427471
       73      H40             22.565548      13.376302      24.353178             11.941174       7.078434      12.887147
       74      DY1             16.762423      19.066241      28.305728              8.870292      10.089420      14.978746
       75      O1              15.113030      23.061449      27.495787              7.997471      12.203593      14.550144
       76      O2              20.123312      21.671009      27.407673             10.648798      11.467804      14.503516
       77      O3              14.579451      19.953287      31.973301              7.715113      10.558825      16.919542
       78      O4              19.526506      18.162596      31.488680             10.332982       9.611232      16.663092
       79      O5              14.928912      15.211700      29.225576              7.900040       8.049685      15.465509
       80      O6              19.325456      16.001286      26.501041             10.226591       8.467516      14.023747

                    ************************************************* 
                    **** InterNuclear Distances / Bohr, Angstrom **** 
                    ************************************************* 

     Atom centers         Bohr        Angstrom
   73 H40      66 H33     0.122845        0.065007
   51 H18      21 C17     1.794163        0.949430
   34 H1        6 C2      1.794520        0.949619
   37 H4       10 C6    
   36 H3        8 C4      1.795013        0.949880
   39 H6       12 C8    
   45 H12      16 C12     1.795464        0.950119
   35 H2        7 C3      1.796140        0.950476
   38 H5       11 C7    
   59 H26      27 C23     1.796187        0.950501
   61 H28      29 C25     1.843777        0.975685
   72 H39      33 C29     1.848684        0.978281
   71 H38      33 C29     1.848992        0.978445
   62 H29      29 C25     1.849294        0.978604
   48 H15      18 C14     1.850547        0.979268
   55 H22      24 C20     1.851144        0.979583
   40 H7       13 C9      1.851472        0.979757
   41 H8       13 C9      1.851549        0.979798
   67 H34      32 C28     1.851600        0.979824
   46 H13      18 C14     1.851702        0.979879
   69 H36      32 C28   
   54 H21      24 C20     1.852220        0.980152
   56 H23      24 C20     1.852348        0.980220
   47 H14      18 C14     1.852784        0.980451
   42 H9       13 C9      1.852858        0.980490
   68 H35      32 C28     1.853864        0.981023
   70 H37      33 C29     1.854801        0.981519
   60 H27      29 C25     1.858607        0.983532
   64 H31      30 C26     1.864969        0.986899
   63 H30      30 C26     1.866348        0.987629
   66 H33      31 C27     1.869830        0.989471
   50 H17      19 C15     1.870029        0.989577
   57 H24      25 C21     1.870125        0.989627
   43 H10      14 C10     1.870457        0.989803
   44 H11      14 C10     1.870524        0.989839
   49 H16      19 C15     1.870682        0.989922
   53 H20      23 C19   
   65 H32      31 C27     1.870989        0.990085
   58 H25      25 C21     1.871072        0.990128
   52 H19      23 C19     1.871397        0.990301
   73 H40      31 C27     1.956997        1.035598
   75 O1       15 C11     2.371789        1.255097
   79 O5       26 C22     2.381797        1.260393
   78 O4       22 C18     2.391203        1.265370
   77 O3       20 C16     2.396065        1.267943
   76 O2       17 C13     2.396569        1.268210
   80 O6       28 C24     2.404598        1.272458
    5 C1        1 N1      2.507619        1.326975
    9 C5        3 N3    
    5 C1        2 N2      2.532816        1.340308
    9 C5        4 N4    
    8 C4        2 N2      2.536011        1.341999
   12 C8        4 N4    
    6 C2        1 N1      2.546763        1.347689
   10 C6        3 N3    
    8 C4        7 C3      2.580679        1.365637
   12 C8       11 C7    
    7 C3        6 C2      2.591678        1.371457
   11 C7       10 C6    
   28 C24      27 C23     2.602300        1.377078
   22 C18      21 C17     2.624169        1.388651
   17 C13      16 C12     2.625101        1.389144
   16 C12      15 C11     2.626288        1.389772
   21 C17      20 C16     2.633215        1.393438
   27 C23      26 C22     2.653684        1.404269
    9 C5        5 C1      2.794307        1.478684
   33 C29      25 C21     2.803645        1.483625
   19 C15      18 C14     2.813388        1.488781
   24 C20      23 C19     2.840843        1.503310
   32 C28      31 C27     2.850154        1.508236
   23 C19      22 C18     2.855826        1.511238
   14 C10      13 C9      2.856822        1.511765
   15 C11      14 C10     2.857168        1.511948
   26 C22      25 C21     2.872323        1.519968
   20 C16      19 C15     2.872504        1.520064
   30 C26      29 C25     2.882773        1.525498
   31 C27      28 C24     2.886697        1.527574
   30 C26      17 C13     2.892330        1.530555
   50 H17      49 H16     3.013731        1.594798
   66 H33      65 H32     3.014643        1.595280
   58 H25      57 H24     3.019748        1.597982
   53 H20      52 H19     3.021529        1.598925
   41 H8       40 H7      3.024184        1.600329
   42 H9       41 H8    
   47 H14      46 H13   
   48 H15      46 H13   
   48 H15      47 H14   
   55 H22      54 H21   
   56 H23      54 H21   
   56 H23      55 H22   
   61 H28      60 H27   
   62 H29      60 H27   
   62 H29      61 H28   
   68 H35      67 H34   
   69 H36      67 H34   
   69 H36      68 H35   
   72 H39      70 H37   
   72 H39      71 H38   
   42 H9       40 H7      3.024203        1.600339
   71 H38      70 H37   
   44 H11      43 H10     3.026690        1.601655
   64 H31      63 H30     3.030820        1.603841
   73 H40      65 H32     3.129962        1.656305
   36 H3        2 N2      3.748875        1.983819
   39 H6        4 N4    
   34 H1        1 N1      3.757486        1.988376
   37 H4        3 N3    
   59 H26      28 C24     3.786721        2.003847
   36 H3        7 C3      3.790976        2.006098
   39 H6       11 C7    
   34 H1        7 C3      3.797060        2.009318
   37 H4       11 C7    
   51 H18      22 C18     3.806791        2.014467
   51 H18      20 C16     3.813515        2.018025
   45 H12      17 C13     3.814375        2.018481
   45 H12      15 C11     3.817027        2.019884
   50 H17      18 C14     3.831084        2.027322
   49 H16      18 C14     3.832181        2.027903
   59 H26      26 C22     3.832897        2.028282
   58 H25      33 C29     3.834771        2.029274
   35 H2        8 C4      3.835027        2.029409
   38 H5       12 C8    
   57 H24      33 C29     3.837570        2.030755
   70 H37      25 C21     3.837606        2.030774
   72 H39      25 C21     3.837735        2.030842
   71 H38      25 C21     3.838051        2.031009
   35 H2        6 C2      3.845654        2.035033
   38 H5       10 C6    
   46 H13      19 C15     3.848634        2.036609
   48 H15      19 C15     3.848674        2.036630
   47 H14      19 C15     3.849001        2.036804
   65 H32      32 C28     3.865905        2.045749
   66 H33      32 C28     3.866960        2.046307
   53 H20      24 C20     3.873203        2.049611
   55 H22      23 C19     3.873523        2.049780
   52 H19      24 C20     3.873755        2.049903
   54 H21      23 C19   
   56 H23      23 C19     3.874304        2.050193
   69 H36      31 C27     3.883268        2.054937
   68 H35      31 C27     3.883305        2.054956
   67 H34      31 C27     3.883848        2.055244
   50 H17      20 C16     3.884976        2.055841
   49 H16      20 C16     3.885378        2.056053
   40 H7       14 C10     3.887999        2.057441
   52 H19      22 C18     3.888240        2.057568
   42 H9       14 C10     3.888410        2.057658
   41 H8       14 C10     3.888428        2.057667
   53 H20      22 C18     3.888890        2.057912
   58 H25      26 C22     3.897883        2.062671
   57 H24      26 C22     3.898260        2.062870
   44 H11      13 C9      3.898423        2.062957
   43 H10      13 C9      3.899034        2.063280
   43 H10      15 C11     3.899100        2.063315
   44 H11      15 C11     3.899154        2.063344
   65 H32      28 C24     3.899671        2.063617
   66 H33      28 C24     3.900209        2.063902
   62 H29      30 C26     3.905352        2.066623
   61 H28      30 C26     3.908448        2.068262
   60 H27      30 C26     3.909236        2.068679
   73 H40      28 C24     3.912126        2.070208
   64 H31      29 C25     3.919510        2.074115
   63 H30      29 C25     3.926473        2.077800
   73 H40      32 C28     3.930523        2.079943
   63 H30      17 C13     3.937174        2.083463
   64 H31      17 C13     3.937310        2.083534
   67 H34      59 H26     4.202372        2.223800
    6 C2        5 C1      4.282866        2.266395
   10 C6        9 C5    
    8 C4        5 C1      4.303395        2.277258
   12 C8        9 C5    
   63 H30      45 H12     4.310566        2.281053
   78 O4       74 DY1     4.311371        2.281479
   56 H23      52 H19     4.334408        2.293670
   45 H12      44 H11     4.335817        2.294416
   76 O2       74 DY1     4.345906        2.299754
   49 H16      46 H13     4.346082        2.299848
   69 H36      66 H33     4.355034        2.304585
   77 O3       74 DY1     4.359279        2.306831
   55 H22      53 H20     4.362196        2.308375
   72 H39      58 H25     4.363651        2.309145
   79 O5       74 DY1     4.366390        2.310594
   50 H17      46 H13     4.371646        2.313376
   72 H39      57 H24     4.373701        2.314463
   52 H19      51 H18     4.382420        2.319077
   80 O6       74 DY1     4.384060        2.319945
   36 H3       35 H2      4.384892        2.320385
   39 H6       38 H5    
   50 H17      48 H15     4.389840        2.323004
   35 H2       34 H1      4.391338        2.323796
   38 H5       37 H4    
   67 H34      65 H32     4.395691        2.326100
   70 H37      57 H24     4.396907        2.326743
   75 O1       74 DY1     4.397520        2.327068
   71 H38      58 H25     4.407211        2.332195
   49 H16      47 H14     4.416263        2.336986
    8 C4        6 C2      4.417101        2.337429
   12 C8       10 C6    
   75 O1       16 C12     4.421082        2.339536
   73 H40      69 H36     4.424978        2.341597
   43 H10      40 H7      4.433830        2.346282
   80 O6       31 C27     4.436666        2.347782
   78 O4       21 C17     4.438745        2.348883
   69 H36      65 H32     4.442872        2.351067
   80 O6       27 C23     4.444098        2.351716
   79 O5       27 C23     4.445857        2.352646
   75 O1       14 C10     4.446693        2.353088
   76 O2       16 C12     4.452705        2.356270
   63 H30      62 H29     4.452927        2.356387
   44 H11      41 H8      4.454261        2.357093
   44 H11      40 H7      4.454424        2.357180
   64 H31      61 H28     4.465917        2.363261
   43 H10      42 H9      4.475177        2.368162
   78 O4       23 C19     4.475546        2.368357
    7 C3        2 N2      4.477587        2.369437
   11 C7        4 N4    
   77 O3       21 C17     4.478763        2.370059
   68 H35      66 H33     4.486291        2.374043
   64 H31      62 H29     4.487682        2.374779
   77 O3       19 C15     4.487772        2.374827
   79 O5       25 C21     4.487999        2.374947
   56 H23      53 H20     4.494181        2.378218
    2 N2        1 N1      4.494898        2.378597
    4 N4        3 N3    
   63 H30      60 H27     4.501003        2.381828
   73 H40      68 H35     4.501238        2.381953
    7 C3        1 N1      4.501599        2.382144
   11 C7        3 N3    
   76 O2       30 C26     4.503903        2.383363
   51 H18      50 H17     4.504252        2.383548
   59 H26      57 H24     4.520966        2.392392
   54 H21      52 H19     4.525490        2.394786
    5 C1        3 N3      4.529396        2.396853
    9 C5        1 N1    
    5 C1        4 N4      4.533095        2.398811
    9 C5        2 N2    
   17 C13      15 C11     4.632214        2.451262
   68 H35      59 H26     4.653353        2.462449
   22 C18      20 C16     4.653816        2.462694
   28 C24      26 C22     4.655583        2.463628
   48 H15      37 H4      4.681453        2.477318
   80 O6       73 H40     4.690635        2.482177
   80 O6       66 H33     4.706555        2.490602
   21 C17      19 C15     4.711438        2.493186
   29 C25      17 C13     4.716120        2.495663
   23 C19      21 C17     4.717013        2.496136
   15 C11      13 C9      4.719900        2.497664
   16 C12      14 C10     4.737789        2.507130
   30 C26      16 C12     4.738477        2.507494
   24 C20      22 C18     4.763530        2.520751
   27 C23      25 C21     4.764054        2.521029
   33 C29      26 C22     4.767810        2.523016
   31 C27      27 C23     4.780254        2.529602
   59 H26      32 C28     4.796193        2.538036
   44 H11      16 C12     4.798251        2.539125
   63 H30      16 C12     4.802760        2.541511
   52 H19      21 C17     4.837727        2.560015
   20 C16      18 C14     4.839890        2.561160
   79 O5       71 H38     4.848150        2.565530
   32 C28      28 C24     4.872992        2.578676
   76 O2       64 H31     4.883380        2.584173
   74 DY1       3 N3      4.886374        2.585758
   51 H18      19 C15     4.906300        2.596302
   50 H17      21 C17     4.917301        2.602124
   51 H18      23 C19     4.923042        2.605161
   57 H24      27 C23     4.931725        2.609757
   75 O1       43 H10     4.932142        2.609977
   74 DY1       2 N2      4.936039        2.612039
   45 H12      30 C26     4.939007        2.613610
   77 O3       47 H14     4.955950        2.622576
   59 H26      25 C21     4.971448        2.630777
   45 H12      14 C10     4.973280        2.631746
   77 O3       37 H4      5.004425        2.648228
   59 H26      31 C27     5.008561        2.650417
   78 O4       55 H22     5.009259        2.650786
   80 O6       65 H32     5.016111        2.654411
    7 C3        5 C1      5.026936        2.660140
   11 C7        9 C5    
   75 O1       42 H9      5.035824        2.664844
   60 H27      17 C13     5.038991        2.666519
   54 H21      22 C18     5.043554        2.668934
   42 H9       15 C11     5.073021        2.684527
    3 N3        2 N2      5.074981        2.685565
    4 N4        1 N1    
   61 H28      17 C13     5.086778        2.691807
   41 H8       15 C11     5.100450        2.699042
    6 C2        2 N2      5.119625        2.709189
   10 C6        4 N4    
   71 H38      26 C22     5.137684        2.718745
    8 C4        1 N1      5.139598        2.719758
   12 C8        3 N3    
   71 H38      37 H4      5.140511        2.720241
   70 H37      26 C22     5.150820        2.725697
   76 O2       75 O1      5.200386        2.751926
   76 O2       36 H3      5.201660        2.752600
   79 O5        3 N3      5.211986        2.758064
   68 H35      28 C24     5.215642        2.759999
   47 H14      20 C16     5.222157        2.763446
   80 O6       79 O5      5.232221        2.768772
   79 O5       33 C29     5.232254        2.768790
   76 O2       61 H28     5.237858        2.771755
   55 H22      22 C18     5.249903        2.778129
   48 H15      20 C16     5.253252        2.779901
   78 O4       24 C20     5.273071        2.790389
   77 O3       18 C14     5.277472        2.792718
   78 O4       77 O3      5.283445        2.795879
   78 O4       53 H20     5.286060        2.797262
   75 O1        3 N3      5.290638        2.799685
   49 H16      21 C17     5.323708        2.817185
   67 H34      28 C24     5.324287        2.817492
   67 H34      27 C23     5.325763        2.818273
   49 H16      48 H15     5.338019        2.824758
   50 H17      47 H14     5.338890        2.825219
   70 H37      58 H25     5.339371        2.825474
   71 H38      57 H24     5.339611        2.825600
   51 H18      49 H16     5.357948        2.835304
   79 O5       37 H4      5.359374        2.836058
   78 O4       54 H21     5.365195        2.839139
   55 H22      52 H19     5.365609        2.839358
   67 H34      66 H33     5.366659        2.839913
   54 H21      53 H20     5.369398        2.841363
   68 H35      65 H32     5.369584        2.841461
   43 H10      41 H8      5.392946        2.853824
   44 H11      42 H9      5.393294        2.854008
   79 O5       58 H25     5.393447        2.854089
   63 H30      61 H28     5.409383        2.862522
   64 H31      60 H27     5.409773        2.862729
   78 O4       76 O2      5.414772        2.865374
   79 O5       70 H37     5.420924        2.868629
   65 H32      55 H22     5.421200        2.868775
   77 O3       48 H15     5.424906        2.870737
   75 O1       17 C13     5.439299        2.878353
   80 O6       78 O4      5.439506        2.878463
   73 H40      67 H34     5.444596        2.881156
   76 O2       15 C11     5.460391        2.889515
   79 O5       28 C24     5.467899        2.893488
   77 O3       49 H16     5.467941        2.893510
   78 O4       20 C16     5.475463        2.897490
   77 O3       75 O1      5.476632        2.898109
   79 O5       77 O3      5.491335        2.905889
   80 O6       26 C22     5.499500        2.910210
   58 H25      27 C23     5.501535        2.911287
   68 H35      27 C23     5.520567        2.921358
   75 O1       13 C9      5.533622        2.928267
   77 O3       22 C18     5.535243        2.929125
   80 O6       36 H3      5.542548        2.932990
   32 C28      27 C23     5.551942        2.937961
   75 O1        2 N2      5.559540        2.941982
   53 H20      21 C17     5.563855        2.944265
   59 H26      58 H25     5.571829        2.948485
   80 O6        2 N2      5.574631        2.949968
   65 H32      54 H21     5.611673        2.969570
   42 H9        9 C5      5.656621        2.993355
--


            Nuclear Potential Energy           7623.54928665 au

--- Stop Module: gateway at Thu Mar  6 10:48:40 2025 /rc=_RC_ALL_IS_WELL_ ---
*** files: xmldump
    saved to directory /media/korden/5fb66ce1-8053-4a4f-9303-c4fa91c2cea8/home/korden/calc/orca/Artem/binucliar_Dyacac_artion_1

*** symbolic link created: INPORB -> artion_1.GssOrb
--- Start Module: seward at Thu Mar  6 10:48:40 2025 ---

()()()()()()()()()()()()()()()()()()()()()()()()()()()()()()()()()()()()()()()()()()()()()()()()()()

                                              &SEWARD

                                   only a single process is used
                       available to each process: 32 GB of memory, 1 thread?
                                            pid: 230114
()()()()()()()()()()()()()()()()()()()()()()()()()()()()()()()()()()()()()()()()()()()()()()()()()()

               SEWARD will generate:
                  Multipole Moment integrals up to order  2
                  Kinetic Energy integrals
                  Nuclear Attraction integrals (point charge)
                  One-Electron Hamiltonian integrals
                  Velocity integrals
                  Relativistic Douglas-Kroll integrals
                  Orbital angular momentum around (16.7624 19.0662 28.3057 )
                  Velocity quadrupole around (16.3593 18.8672 27.9255 )
                  Atomic mean-field integrals
                  Cholesky decomposed two-electron repulsion integrals
                   - CD Threshold:   0.10E-07

                   Integrals are discarded if absolute value <: 0.10E-39
                   Integral cutoff threshold is set to       <: 0.10E-39

            Nuclear Potential Energy           7623.54928665 au


      Basis set specifications :
      Symmetry species         a  
      Basis functions          278

      Cholesky vectors        3313



  Input file to MOLDEN was generated!

--- Stop Module: seward at Thu Mar  6 11:25:59 2025 /rc=_RC_ALL_IS_WELL_ ---
*** files: artion_1.GssOrb artion_1.guessorb.molden xmldump
    saved to directory /media/korden/5fb66ce1-8053-4a4f-9303-c4fa91c2cea8/home/korden/calc/orca/Artem/binucliar_Dyacac_artion_1
--- Module seward spent 37 minutes 18 seconds ---

*** symbolic link created: INPORB -> artion_1.GssOrb
--- Start Module: rasscf at Thu Mar  6 11:25:59 2025 ---

()()()()()()()()()()()()()()()()()()()()()()()()()()()()()()()()()()()()()()()()()()()()()()()()()()

                                              &RASSCF

                                   only a single process is used
                       available to each process: 32 GB of memory, 1 thread?
                                            pid: 230226
()()()()()()()()()()()()()()()()()()()()()()()()()()()()()()()()()()()()()()()()()()()()()()()()()()


      Header of the ONEINT file:
      --------------------------
      
      Integrals generated by Gateway/Seward, Thu Mar  6 10:48:40 2025


      OrdInt status: non-squared


      Cartesian coordinates in Angstrom:
      -----------------------------------------------------
      No.  Label        X            Y            Z        
      -----------------------------------------------------
       1   N1         7.11145000  10.42675600  10.52670600
       2   N2         8.58318100  10.29350600  12.39056800
       3   N3         6.47767800   9.91428300  14.01393100
       4   N4         5.00594800  10.04753200  12.15006900
       5   C1         7.37115400  10.27188500  11.81877100
       6   C2         8.18251600  10.61363400   9.73036300
       7   C3         9.46439400  10.63327600  10.21749400
       8   C4         9.62478700  10.47812500  11.56477500
       9   C5         6.21797400  10.06915300  12.72186600
      10   C6         5.40661300   9.72740500  14.81027400
      11   C7         4.12473400   9.70776200  14.32314300
      12   C8         3.96434200   9.86291300  12.97586200
      13   C9         6.62445400  13.89878100  12.59670900
      14   C10        7.43051800  14.35735700  13.79061100
      15   C11        8.45162200  13.31938800  14.19798500
      16   C12        9.80321900  13.64165200  14.16976400
      17   C13       10.82253300  12.71341200  14.34032100
      18   C14        5.49660500  10.96120200  18.56744600
      19   C15        6.84076100  10.64812900  19.12574600
      20   C16        7.91535900  10.24123400  18.13062300
      21   C17        9.04725100   9.59912000  18.62879800
      22   C18       10.19870700   9.34955100  17.89380500
      23   C19       11.39560900   8.75356200  18.59812200
      24   C20       12.21253500   7.84289500  17.72447600
      25   C21        7.34320100   5.82226700  16.07288900
      26   C22        8.28583600   6.84979100  15.46796300
      27   C23        9.50974800   6.41947800  14.93052300
      28   C24       10.39951100   7.22930500  14.26056400
      29   C25       13.01339500  13.05669500  15.48514200
      30   C26       12.26827000  13.18235600  14.15994700
      31   C27       11.77392700   6.71126800  13.84091900
      32   C28       11.94122800   5.21273300  13.80656200
      33   C29        6.41460300   6.37147600  17.09132800
      34   H1         8.04520800  10.73713000   8.79887400
      35   H2        10.21103000  10.74962500   9.64094900
      36   H3        10.50137000  10.50281300  11.92982900
      37   H4         5.54392000   9.60390800  15.74176300
      38   H5         3.37809900   9.59141300  14.89968800
      39   H6         3.08775900   9.83822500  12.61080800
      40   H7         5.96226600  14.58342800  12.36716800
      41   H8         7.22276100  13.75368600  11.83448900
      42   H9         6.16513200  13.06058100  12.81535400
      43   H10        6.82074100  14.53324700  14.55018000
      44   H11        7.89373100  15.20327200  13.56780600
      45   H12       10.04464600  14.54932500  14.02634800
      46   H13        4.89579500  11.22828500  19.29398300
      47   H14        5.57452000  11.69504100  17.92192800
      48   H15        5.13643200  10.16853200  18.11921100
      49   H16        7.16239900  11.44437500  19.61819100
      50   H17        6.73712300   9.91626200  19.78369100
      51   H18        9.02921700   9.31205600  19.53361100
      52   H19       11.08223200   8.24352600  19.38701600
      53   H20       11.97447200   9.48719700  18.92468500
      54   H21       11.62754200   7.17041700  17.31673200
      55   H22       12.64676300   8.36822100  17.02087000
      56   H23       12.89534000   7.39544000  18.26705600
      57   H24        7.88139900   5.10310800  16.48823900
      58   H25        6.80887500   5.41514900  15.34549300
      59   H26        9.73970700   5.50322000  15.03560600
      60   H27       12.55325000  13.59626500  16.16666000
      61   H28       13.02874100  12.12203200  15.76466000
      62   H29       13.92786200  13.38706100  15.37435300
      63   H30       12.27938400  14.12329300  13.86007300
      64   H31       12.71709400  12.62853100  13.47744800
      65   H32       12.44781900   7.08253400  14.46405500
      66   H33       11.97712300   7.06609600  12.93988500
      67   H34       11.84077300   4.85071700  14.71149800
      68   H35       11.25833700   4.82103800  13.22120700
      69   H36       12.83131200   4.99040100  13.46234300
      70   H37        6.93479500   6.74900500  17.83311700
      71   H38        5.86605300   7.07361000  16.68703300
      72   H39        5.83937600   5.65512700  17.42747100
      73   H40       11.94117400   7.07843400  12.88714700
      74   DY1        8.87029200  10.08942000  14.97874600
      75   O1         7.99747100  12.20359300  14.55014400
      76   O2        10.64879800  11.46780400  14.50351600
      77   O3         7.71511300  10.55882500  16.91954200
      78   O4        10.33298200   9.61123200  16.66309200
      79   O5         7.90004000   8.04968500  15.46550900
      80   O6        10.22659100   8.46751600  14.02374700
      -----------------------------------------------------
      Nuclear repulsion energy = 7623.54928665

++    Wave function specifications:
      -----------------------------

      Number of closed shell electrons         346
      Number of electrons in active shells       9
      Max number of holes in RAS1 space          0
      Max nr of electrons in RAS3 space          0
      Number of inactive orbitals              173
      Number of active orbitals                  7
      Number of secondary orbitals              98
      Spin quantum number                      2.5
      State symmetry                             1
--

++    Orbital specifications:
      -----------------------

      Symmetry species                           1
                                                 a
      Frozen orbitals                            0
      Inactive orbitals                        173
      Active orbitals                            7
      RAS1 orbitals                              0
      RAS2 orbitals                              7
      RAS3 orbitals                              0
      Secondary orbitals                        98
      Deleted orbitals                           0
      Number of basis functions                278
--

++    CI expansion specifications:
      ----------------------------

      Number of CSFs                            21
      Number of determinants                    21
      Number of root(s) required                21
      Root chosen for geometry opt.             21
      CI roots used                              1     2     3     4     5     6     7     8     9    10
                                                11    12    13    14    15    16    17    18    19    20
                                                21
      weights                                0.048 0.048 0.048 0.048 0.048 0.048 0.048 0.048 0.048 0.048
                                             0.048 0.048 0.048 0.048 0.048 0.048 0.048 0.048 0.048 0.048
                                             0.048
      highest root included in the CI           21
      max. size of the explicit Hamiltonian     21
--

++    Optimization specifications:
      ----------------------------

      RASSCF algorithm: LK Cholesky
      Maximum number of macro iterations       200
      Maximum number of SX iterations          100
      Threshold for RASSCF energy            0.100E-07
      Threshold for max MO rotation          0.100E+00
      Threshold for max BLB element          0.100E-03
      Level shift parameter                  0.500E+00
      Make Quasi-Newton update
--

      Orbitals from runfile: guessorb orbitals
      The MO-coefficients are taken from guessorb on runfile

      Total molecular charge    1.00

      ************************************************************************************************************************
      *                                                                                                                      *
      *                                            Wave function control section                                             *
      *                                                                                                                      *
      ************************************************************************************************************************


                                         RASSCF iterations: Energy and convergence statistics
                                         ----------------------------------------------------

      Iter CI   SX   CI       RASSCF       Energy    max ROT     max BLB   max BLB  Level Ln srch  Step   QN   Walltime
          iter iter root      energy       change     param      element    value   shift minimum  type update hh:mm:ss
 Nr of preliminary CI iterations:   1
      Total energies have been shifted. Add               -13000.00 au
        1   1   15    0  -910.99538385    0.00E+00   0.18E+00*  58 275 1 -0.89E+00*  4.46   0.00    SX    NO    0:05:28
        2   1   13    0  -915.33646674   -0.43E+01*  0.19E+00* 171 174 1 -0.59E+00*  3.24   0.00    SX    NO    0:01:39
        3   1   12    0  -919.92857981   -0.46E+01* -0.20E+00* 165 176 1  0.46E+00*  1.63   0.00    SX    NO    0:01:44
        4   1   10    0  -922.94589243   -0.30E+01* -0.16E+00*  59 274 1  0.48E+00*  0.79   0.00    SX    NO    0:01:48
        5   1   10    0  -924.34022327   -0.14E+01* -0.87E-01   60 273 1  0.26E+00*  0.41   2.10    QN   YES    0:01:45
        6   1   10    0  -924.87794431   -0.54E+00* -0.62E-01   89 276 1  0.19E+00*  0.41   2.50    LS   YES    0:01:49
        7   1   10    0  -925.13149413   -0.25E+00* -0.88E-01   89 276 1  0.13E+00*  0.40   2.50    QN   YES    0:01:51
        8   1   11    0  -925.34678831   -0.22E+00* -0.13E+00*  89 276 1  0.69E-01*  0.39   2.32    QN   YES    0:01:52
        9   1   10    0  -925.51864838   -0.17E+00* -0.17E+00* 170 175 1  0.73E-01*  0.42   2.50    QN   YES    0:01:55
       10   1   10    0  -925.67114835   -0.15E+00*  0.92E-01   59 274 1 -0.54E-01*  0.46   1.48    QN   YES    0:01:52
       11   1   10    0  -925.72026230   -0.49E-01* -0.30E-01   59 274 1 -0.50E-01*  0.44   1.13    QN   YES    0:01:53
       12   1   10    0  -925.73718969   -0.17E-01*  0.14E-01   63 269 1  0.27E-01*  0.44   1.58    QN   YES    0:01:53
       13   1    9    0  -925.74357982   -0.64E-02*  0.50E-02   89 276 1 -0.93E-02*  0.45   1.34    QN   YES    0:01:56
       14   1    9    0  -925.74465528   -0.11E-02* -0.23E-02   59 274 1  0.57E-02*  0.46   1.29    QN   YES    0:02:03
       15   1    8    0  -925.74483649   -0.18E-03* -0.17E-02  138 183 1 -0.17E-02*  0.46   1.39    QN   YES    0:02:06
       16   1    8    0  -925.74489105   -0.55E-04* -0.11E-02   89 276 1  0.87E-03*  0.46   1.43    QN   YES    0:02:12
       17   1    7    0  -925.74490940   -0.18E-04* -0.57E-03   59 274 1 -0.88E-03*  0.46   1.37    QN   YES    0:02:16
       18   1    7    0  -925.74491441   -0.50E-05* -0.23E-03  167 185 1 -0.28E-03*  0.46   1.34    QN   YES    0:02:16
       19   1    6    0  -925.74491569   -0.13E-05* -0.98E-04  167 185 1 -0.11E-03*  0.46   1.22    QN   YES    0:02:22
       20   1    6    0  -925.74491596   -0.28E-06*  0.37E-04   59 274 1  0.88E-04   0.46   1.15    QN   YES    0:02:26
       21   1    6    0  -925.74491601   -0.46E-07* -0.16E-04   59 274 1  0.22E-04   0.46   1.14    QN   YES    0:02:27
       22   1    5    0  -925.74491603   -0.25E-07*  0.92E-05  167 184 1 -0.89E-05   0.46   1.02    QN   YES    0:02:32
       23   1    4    0  -925.74491604   -0.72E-08  -0.57E-05   59 274 1 -0.88E-05   0.46   1.03    QN   YES    0:02:36
      Convergence after 23 iterations
       24   1    4    0  -925.74491604   -0.74E-09  -0.57E-05   63 269 1  0.30E-05   0.46   1.03    QN   YES    0:02:35

      ************************************************************************************************************************
                                                      Wave function printout:
                       occupation of active orbitals, and spin coupling of open shells (u,d: Spin up or down)
      ************************************************************************************************************************

      Note: transformation to natural orbitals
      has been made, which may change the order of the CSFs.

      printout of CI-coefficients larger than  0.05 for root  1
      energy=  -13925.778540
      conf/sym  1111111     Coeff  Weight
             1  22uuuuu   0.13542 0.01834
             2  2u2uuuu  -0.21219 0.04503
             4  2uu2uuu  -0.32471 0.10544
             5  2uuu2uu  -0.15337 0.02352
             6  2uuuu2u  -0.05526 0.00305
            10  u2uuu2u  -0.58970 0.34775
            11  u2uuuu2  -0.33038 0.10915
            12  uu22uuu   0.18999 0.03609
            13  uu2u2uu  -0.08306 0.00690
            15  uu2uuu2  -0.35484 0.12591
            16  uuu22uu  -0.14334 0.02055
            17  uuu2u2u  -0.21220 0.04503
            18  uuuu22u  -0.12577 0.01582
            19  uuu2uu2  -0.10309 0.01063
            20  uuuu2u2  -0.08290 0.00687
            21  uuuuu22   0.27615 0.07626

      printout of CI-coefficients larger than  0.05 for root  2
      energy=  -13925.778528
      conf/sym  1111111     Coeff  Weight
             1  22uuuuu   0.41629 0.17330
             3  u22uuuu   0.36980 0.13675
             4  2uu2uuu   0.16834 0.02834
             5  2uuu2uu   0.10543 0.01111
             6  2uuuu2u  -0.16302 0.02658
             8  u2u2uuu  -0.14664 0.02150
             9  u2uu2uu   0.18178 0.03304
            11  u2uuuu2   0.20314 0.04127
            12  uu22uuu  -0.21146 0.04472
            13  uu2u2uu  -0.06319 0.00399
            14  uu2uu2u  -0.12689 0.01610
            15  uu2uuu2  -0.28554 0.08153
            16  uuu22uu   0.11323 0.01282
            17  uuu2u2u  -0.40185 0.16148
            19  uuu2uu2  -0.22788 0.05193
            20  uuuu2u2  -0.16972 0.02881
            21  uuuuu22  -0.35128 0.12340

      printout of CI-coefficients larger than  0.05 for root  3
      energy=  -13925.778353
      conf/sym  1111111     Coeff  Weight
             1  22uuuuu  -0.05368 0.00288
             3  u22uuuu   0.43765 0.19154
             4  2uu2uuu  -0.21927 0.04808
             5  2uuu2uu  -0.19999 0.04000
             6  2uuuu2u  -0.20141 0.04057
             9  u2uu2uu  -0.05486 0.00301
            10  u2uuu2u  -0.18759 0.03519
            11  u2uuuu2  -0.14083 0.01983
            13  uu2u2uu  -0.25938 0.06728
            14  uu2uu2u   0.11230 0.01261
            15  uu2uuu2   0.24326 0.05917
            16  uuu22uu  -0.11899 0.01416
            17  uuu2u2u   0.45980 0.21142
            18  uuuu22u   0.18286 0.03344
            20  uuuu2u2  -0.30715 0.09434
            21  uuuuu22  -0.34753 0.12078

      printout of CI-coefficients larger than  0.05 for root  4
      energy=  -13925.778182
      conf/sym  1111111     Coeff  Weight
             1  22uuuuu  -0.21839 0.04769
             4  2uu2uuu   0.06977 0.00487
             5  2uuu2uu  -0.05545 0.00307
             6  2uuuu2u   0.15413 0.02376
             7  2uuuuu2  -0.05655 0.00320
             8  u2u2uuu   0.06215 0.00386
             9  u2uu2uu  -0.45103 0.20343
            10  u2uuu2u  -0.27592 0.07613
            11  u2uuuu2   0.12615 0.01591
            12  uu22uuu  -0.48384 0.23410
            13  uu2u2uu  -0.19354 0.03746
            14  uu2uu2u   0.06551 0.00429
            15  uu2uuu2  -0.34332 0.11787
            16  uuu22uu   0.19968 0.03987
            18  uuuu22u  -0.19235 0.03700
            19  uuu2uu2   0.32863 0.10800
            20  uuuu2u2   0.13250 0.01756
            21  uuuuu22  -0.13687 0.01873

      printout of CI-coefficients larger than  0.05 for root  5
      energy=  -13925.777930
      conf/sym  1111111     Coeff  Weight
             1  22uuuuu  -0.13545 0.01835
             2  2u2uuuu  -0.15491 0.02400
             3  u22uuuu   0.37895 0.14360
             4  2uu2uuu   0.09353 0.00875
             5  2uuu2uu  -0.07003 0.00490
             6  2uuuu2u   0.09212 0.00849
             7  2uuuuu2   0.19257 0.03708
             8  u2u2uuu  -0.07161 0.00513
            11  u2uuuu2   0.22531 0.05076
            12  uu22uuu   0.40465 0.16374
            14  uu2uu2u   0.07134 0.00509
            15  uu2uuu2  -0.15112 0.02284
            16  uuu22uu   0.61072 0.37298
            17  uuu2u2u   0.11266 0.01269
            18  uuuu22u   0.17196 0.02957
            21  uuuuu22   0.29889 0.08933

      printout of CI-coefficients larger than  0.05 for root  6
      energy=  -13925.777731
      conf/sym  1111111     Coeff  Weight
             1  22uuuuu   0.12431 0.01545
             2  2u2uuuu  -0.08857 0.00784
             3  u22uuuu  -0.25755 0.06633
             5  2uuu2uu   0.26188 0.06858
             6  2uuuu2u   0.51793 0.26826
             7  2uuuuu2  -0.14547 0.02116
             9  u2uu2uu   0.34221 0.11711
            10  u2uuu2u  -0.25701 0.06605
            11  u2uuuu2   0.15148 0.02295
            13  uu2u2uu  -0.42386 0.17966
            15  uu2uuu2   0.20802 0.04327
            16  uuu22uu   0.17138 0.02937
            17  uuu2u2u   0.18883 0.03566
            18  uuuu22u  -0.11717 0.01373
            19  uuu2uu2  -0.15457 0.02389
            20  uuuu2u2  -0.08366 0.00700
            21  uuuuu22  -0.10879 0.01184

      printout of CI-coefficients larger than  0.05 for root  7
      energy=  -13925.777541
      conf/sym  1111111     Coeff  Weight
             1  22uuuuu   0.08883 0.00789
             2  2u2uuuu  -0.51098 0.26110
             4  2uu2uuu   0.16672 0.02779
             5  2uuu2uu   0.18435 0.03398
             6  2uuuu2u   0.05362 0.00287
             7  2uuuuu2  -0.12460 0.01553
             8  u2u2uuu  -0.05864 0.00344
             9  u2uu2uu  -0.11982 0.01436
            10  u2uuu2u  -0.16002 0.02561
            12  uu22uuu  -0.05143 0.00264
            14  uu2uu2u  -0.10147 0.01030
            15  uu2uuu2   0.12964 0.01681
            16  uuu22uu  -0.16347 0.02672
            17  uuu2u2u  -0.13202 0.01743
            18  uuuu22u   0.63300 0.40069
            19  uuu2uu2   0.19335 0.03738
            20  uuuu2u2   0.29918 0.08951

      printout of CI-coefficients larger than  0.05 for root  8
      energy=  -13925.777128
      conf/sym  1111111     Coeff  Weight
             1  22uuuuu  -0.43866 0.19242
             2  2u2uuuu  -0.21919 0.04804
             3  u22uuuu  -0.05167 0.00267
             4  2uu2uuu   0.25484 0.06494
             5  2uuu2uu  -0.29025 0.08425
             7  2uuuuu2  -0.21411 0.04584
             8  u2u2uuu  -0.14739 0.02172
             9  u2uu2uu   0.34350 0.11799
            10  u2uuu2u   0.06571 0.00432
            11  u2uuuu2  -0.09757 0.00952
            13  uu2u2uu   0.09428 0.00889
            14  uu2uu2u   0.12482 0.01558
            15  uu2uuu2  -0.36958 0.13659
            16  uuu22uu  -0.11526 0.01328
            17  uuu2u2u   0.14287 0.02041
            19  uuu2uu2  -0.28267 0.07990
            20  uuuu2u2   0.18421 0.03393
            21  uuuuu22  -0.30909 0.09554

      printout of CI-coefficients larger than  0.05 for root  9
      energy=  -13925.777043
      conf/sym  1111111     Coeff  Weight
             2  2u2uuuu  -0.22062 0.04867
             4  2uu2uuu  -0.25024 0.06262
             6  2uuuu2u  -0.22579 0.05098
             7  2uuuuu2  -0.49814 0.24814
             8  u2u2uuu  -0.11242 0.01264
            10  u2uuu2u  -0.16609 0.02758
            11  u2uuuu2   0.38472 0.14801
            12  uu22uuu  -0.19925 0.03970
            13  uu2u2uu   0.47983 0.23024
            14  uu2uu2u  -0.08601 0.00740
            15  uu2uuu2   0.11187 0.01252
            16  uuu22uu   0.12642 0.01598
            17  uuu2u2u   0.22770 0.05185
            18  uuuu22u  -0.11056 0.01222
            19  uuu2uu2  -0.06365 0.00405
            20  uuuu2u2  -0.07135 0.00509
            21  uuuuu22   0.13949 0.01946

      printout of CI-coefficients larger than  0.05 for root 10
      energy=  -13925.776027
      conf/sym  1111111     Coeff  Weight
             3  u22uuuu  -0.30434 0.09263
             4  2uu2uuu   0.45212 0.20442
             5  2uuu2uu   0.15062 0.02269
             6  2uuuu2u  -0.37782 0.14275
             8  u2u2uuu   0.15929 0.02537
            10  u2uuu2u  -0.19186 0.03681
            11  u2uuuu2   0.33985 0.11550
            12  uu22uuu   0.23864 0.05695
            13  uu2u2uu  -0.13006 0.01691
            15  uu2uuu2  -0.20349 0.04141
            16  uuu22uu  -0.22658 0.05134
            17  uuu2u2u   0.19320 0.03733
            18  uuuu22u   0.07446 0.00554
            19  uuu2uu2   0.13191 0.01740
            20  uuuu2u2  -0.35546 0.12635
            21  uuuuu22   0.06105 0.00373

      printout of CI-coefficients larger than  0.05 for root 11
      energy=  -13925.776011
      conf/sym  1111111     Coeff  Weight
             1  22uuuuu   0.37488 0.14054
             2  2u2uuuu  -0.25410 0.06457
             3  u22uuuu  -0.14599 0.02131
             4  2uu2uuu   0.23441 0.05495
             5  2uuu2uu  -0.35810 0.12824
             8  u2u2uuu   0.06279 0.00394
             9  u2uu2uu  -0.26894 0.07233
            10  u2uuu2u   0.23909 0.05717
            12  uu22uuu  -0.30077 0.09046
            13  uu2u2uu  -0.15554 0.02419
            14  uu2uu2u   0.13330 0.01777
            17  uuu2u2u   0.19008 0.03613
            19  uuu2uu2  -0.42459 0.18028
            20  uuuu2u2  -0.08650 0.00748
            21  uuuuu22   0.30826 0.09502

      printout of CI-coefficients larger than  0.05 for root 12
      energy=  -13925.745708
      conf/sym  1111111     Coeff  Weight
             1  22uuuuu   0.32138 0.10328
             2  2u2uuuu  -0.06955 0.00484
             3  u22uuuu   0.12719 0.01618
             4  2uu2uuu  -0.18486 0.03417
             5  2uuu2uu   0.14710 0.02164
             6  2uuuu2u   0.12247 0.01500
             7  2uuuuu2   0.21915 0.04803
             8  u2u2uuu   0.08250 0.00681
             9  u2uu2uu   0.34948 0.12213
            10  u2uuu2u   0.15399 0.02371
            11  u2uuuu2   0.11392 0.01298
            12  uu22uuu  -0.14917 0.02225
            13  uu2u2uu   0.11610 0.01348
            14  uu2uu2u   0.37717 0.14226
            15  uu2uuu2  -0.35363 0.12505
            16  uuu22uu  -0.22930 0.05258
            17  uuu2u2u   0.31976 0.10225
            19  uuu2uu2   0.31673 0.10031
            20  uuuu2u2   0.13998 0.01959
            21  uuuuu22   0.11221 0.01259

      printout of CI-coefficients larger than  0.05 for root 13
      energy=  -13925.745283
      conf/sym  1111111     Coeff  Weight
             1  22uuuuu   0.26383 0.06961
             2  2u2uuuu   0.23727 0.05630
             3  u22uuuu  -0.14593 0.02130
             4  2uu2uuu   0.07403 0.00548
             5  2uuu2uu  -0.29177 0.08513
             6  2uuuu2u  -0.31423 0.09874
             7  2uuuuu2  -0.06205 0.00385
             8  u2u2uuu  -0.39731 0.15786
             9  u2uu2uu   0.05296 0.00281
            10  u2uuu2u  -0.18690 0.03493
            11  u2uuuu2   0.10672 0.01139
            12  uu22uuu   0.13187 0.01739
            13  uu2u2uu  -0.17437 0.03040
            14  uu2uu2u   0.34567 0.11948
            15  uu2uuu2   0.20986 0.04404
            16  uuu22uu   0.09136 0.00835
            18  uuuu22u  -0.05063 0.00256
            19  uuu2uu2   0.13316 0.01773
            20  uuuu2u2   0.45809 0.20985
            21  uuuuu22  -0.05111 0.00261

      printout of CI-coefficients larger than  0.05 for root 14
      energy=  -13925.744957
      conf/sym  1111111     Coeff  Weight
             1  22uuuuu  -0.20055 0.04022
             2  2u2uuuu  -0.10879 0.01183
             3  u22uuuu   0.41530 0.17248
             4  2uu2uuu   0.28349 0.08037
             5  2uuu2uu  -0.11044 0.01220
             6  2uuuu2u   0.09736 0.00948
             7  2uuuuu2  -0.14468 0.02093
             8  u2u2uuu  -0.10883 0.01184
             9  u2uu2uu   0.18831 0.03546
            11  u2uuuu2   0.10087 0.01017
            12  uu22uuu  -0.12629 0.01595
            13  uu2u2uu  -0.17785 0.03163
            14  uu2uu2u   0.10722 0.01150
            15  uu2uuu2   0.26418 0.06979
            16  uuu22uu  -0.33506 0.11227
            17  uuu2u2u  -0.24282 0.05896
            18  uuuu22u  -0.29624 0.08776
            19  uuu2uu2   0.19158 0.03670
            20  uuuu2u2  -0.12139 0.01474
            21  uuuuu22   0.39460 0.15571

      printout of CI-coefficients larger than  0.05 for root 15
      energy=  -13925.744861
      conf/sym  1111111     Coeff  Weight
             1  22uuuuu  -0.07794 0.00607
             2  2u2uuuu  -0.22527 0.05075
             3  u22uuuu  -0.11466 0.01315
             4  2uu2uuu  -0.21950 0.04818
             5  2uuu2uu   0.19207 0.03689
             6  2uuuu2u  -0.35509 0.12609
             7  2uuuuu2  -0.24081 0.05799
             8  u2u2uuu  -0.24835 0.06168
             9  u2uu2uu   0.08134 0.00662
            10  u2uuu2u   0.43413 0.18847
            11  u2uuuu2  -0.21413 0.04585
            13  uu2u2uu  -0.45160 0.20394
            14  uu2uu2u  -0.08563 0.00733
            15  uu2uuu2  -0.17281 0.02986
            16  uuu22uu   0.20579 0.04235
            18  uuuu22u  -0.05239 0.00275
            19  uuu2uu2   0.22359 0.04999
            20  uuuu2u2  -0.10927 0.01194
            21  uuuuu22   0.09230 0.00852

      printout of CI-coefficients larger than  0.05 for root 16
      energy=  -13925.744578
      conf/sym  1111111     Coeff  Weight
             1  22uuuuu   0.31105 0.09675
             2  2u2uuuu  -0.24782 0.06142
             3  u22uuuu   0.10519 0.01107
             5  2uuu2uu  -0.10977 0.01205
             6  2uuuu2u   0.20029 0.04012
             7  2uuuuu2  -0.32213 0.10377
             8  u2u2uuu   0.15856 0.02514
             9  u2uu2uu  -0.30140 0.09084
            10  u2uuu2u   0.20786 0.04321
            12  uu22uuu   0.49331 0.24335
            14  uu2uu2u   0.07183 0.00516
            16  uuu22uu  -0.07289 0.00531
            18  uuuu22u  -0.32853 0.10793
            19  uuu2uu2   0.20875 0.04358
            21  uuuuu22  -0.32201 0.10369

      printout of CI-coefficients larger than  0.05 for root 17
      energy=  -13925.744512
      conf/sym  1111111     Coeff  Weight
             1  22uuuuu  -0.12001 0.01440
             2  2u2uuuu   0.26110 0.06817
             4  2uu2uuu  -0.38545 0.14857
             5  2uuu2uu  -0.11105 0.01233
             6  2uuuu2u   0.20643 0.04261
             7  2uuuuu2  -0.21401 0.04580
             8  u2u2uuu  -0.13938 0.01943
             9  u2uu2uu  -0.19954 0.03982
            10  u2uuu2u   0.16086 0.02588
            11  u2uuuu2   0.44732 0.20009
            12  uu22uuu   0.11529 0.01329
            13  uu2u2uu  -0.23284 0.05422
            14  uu2uu2u   0.07830 0.00613
            15  uu2uuu2  -0.18806 0.03537
            16  uuu22uu  -0.30600 0.09364
            17  uuu2u2u  -0.15212 0.02314
            18  uuuu22u   0.33796 0.11422
            19  uuu2uu2  -0.18525 0.03432
            21  uuuuu22   0.08519 0.00726

      printout of CI-coefficients larger than  0.05 for root 18
      energy=  -13925.744324
      conf/sym  1111111     Coeff  Weight
             1  22uuuuu  -0.10220 0.01044
             2  2u2uuuu  -0.29667 0.08801
             3  u22uuuu  -0.29489 0.08696
             4  2uu2uuu  -0.19565 0.03828
             5  2uuu2uu  -0.39037 0.15239
             7  2uuuuu2   0.22044 0.04859
             8  u2u2uuu   0.21800 0.04753
             9  u2uu2uu   0.20904 0.04370
            10  u2uuu2u   0.05002 0.00250
            11  u2uuuu2   0.23536 0.05539
            12  uu22uuu  -0.10331 0.01067
            14  uu2uu2u   0.21849 0.04774
            15  uu2uuu2   0.15689 0.02462
            16  uuu22uu   0.17283 0.02987
            17  uuu2u2u  -0.37758 0.14257
            18  uuuu22u   0.09906 0.00981
            19  uuu2uu2   0.22278 0.04963
            20  uuuu2u2  -0.27136 0.07364
            21  uuuuu22  -0.18857 0.03556

      printout of CI-coefficients larger than  0.05 for root 19
      energy=  -13925.625986
      conf/sym  1111111     Coeff  Weight
             1  22uuuuu  -0.06680 0.00446
             2  2u2uuuu  -0.05629 0.00317
             3  u22uuuu  -0.09076 0.00824
             4  2uu2uuu   0.06046 0.00366
             5  2uuu2uu   0.30277 0.09167
             6  2uuuu2u   0.12995 0.01689
             7  2uuuuu2   0.07726 0.00597
             8  u2u2uuu  -0.51271 0.26288
             9  u2uu2uu  -0.25026 0.06263
            11  u2uuuu2  -0.17182 0.02952
            13  uu2u2uu   0.25003 0.06251
            14  uu2uu2u   0.53495 0.28617
            17  uuu2u2u  -0.08766 0.00768
            20  uuuu2u2  -0.38127 0.14536
            21  uuuuu22  -0.06760 0.00457

      printout of CI-coefficients larger than  0.05 for root 20
      energy=  -13925.625751
      conf/sym  1111111     Coeff  Weight
             1  22uuuuu   0.15464 0.02391
             2  2u2uuuu   0.08677 0.00753
             3  u22uuuu  -0.10706 0.01146
             4  2uu2uuu   0.07330 0.00537
             5  2uuu2uu  -0.37791 0.14282
             6  2uuuu2u   0.26093 0.06808
             7  2uuuuu2   0.10570 0.01117
             8  u2u2uuu  -0.48312 0.23341
             9  u2uu2uu   0.06048 0.00366
            13  uu2u2uu   0.12822 0.01644
            14  uu2uu2u  -0.49082 0.24090
            15  uu2uuu2  -0.09049 0.00819
            16  uuu22uu  -0.05358 0.00287
            17  uuu2u2u   0.17008 0.02893
            18  uuuu22u   0.09042 0.00818
            19  uuu2uu2   0.34703 0.12043
            20  uuuu2u2  -0.25416 0.06460

      printout of CI-coefficients larger than  0.05 for root 21
      energy=  -13925.624262
      conf/sym  1111111     Coeff  Weight
             1  22uuuuu   0.10910 0.01190
             2  2u2uuuu   0.37963 0.14412
             4  2uu2uuu   0.15614 0.02438
             5  2uuu2uu  -0.10945 0.01198
             6  2uuuu2u   0.10742 0.01154
             7  2uuuuu2  -0.52909 0.27993
             8  u2u2uuu   0.26956 0.07266
             9  u2uu2uu   0.16937 0.02869
            11  u2uuuu2  -0.30893 0.09544
            12  uu22uuu  -0.05693 0.00324
            13  uu2u2uu   0.08211 0.00674
            14  uu2uu2u   0.20980 0.04402
            15  uu2uuu2  -0.06010 0.00361
            16  uuu22uu   0.23451 0.05500
            17  uuu2u2u  -0.06672 0.00445
            18  uuuu22u   0.34057 0.11598
            19  uuu2uu2   0.17648 0.03114
            20  uuuu2u2  -0.20209 0.04084
            21  uuuuu22   0.11545 0.01333

      Natural orbitals and occupation numbers for root  1
      sym 1:   1.000000   1.660531   1.274709   1.064760   1.064760   1.660531   1.274709

      Natural orbitals and occupation numbers for root  2
      sym 1:   1.000000   1.557118   1.557118   1.006620   1.006620   1.436262   1.436262

      Natural orbitals and occupation numbers for root  3
      sym 1:   1.000000   1.014929   1.415471   1.014929   1.415471   1.569600   1.569600

      Natural orbitals and occupation numbers for root  4
      sym 1:   1.000000   1.433978   1.557003   1.557003   1.433978   1.009019   1.009019

      Natural orbitals and occupation numbers for root  5
      sym 1:   1.000000   1.125876   1.125876   1.675157   1.675157   1.198967   1.198967

      Natural orbitals and occupation numbers for root  6
      sym 1:   1.613550   1.613550   1.021829   1.000000   1.364621   1.364621   1.021829

      Natural orbitals and occupation numbers for root  7
      sym 1:   1.291075   1.000000   1.291075   1.063470   1.645455   1.645455   1.063470

      Natural orbitals and occupation numbers for root  8
      sym 1:   1.551296   1.551296   1.010180   1.438524   1.000000   1.010180   1.438524

      Natural orbitals and occupation numbers for root  9
      sym 1:   1.622356   1.000000   1.622356   1.312349   1.065294   1.065294   1.312349

      Natural orbitals and occupation numbers for root 10
      sym 1:   1.535499   1.005475   1.005475   1.459026   1.535499   1.000000   1.459026

      Natural orbitals and occupation numbers for root 11
      sym 1:   1.535021   1.000000   1.006759   1.535021   1.458220   1.006759   1.458220

      Natural orbitals and occupation numbers for root 12
      sym 1:   1.000000   1.348176   1.329574   1.322249   1.348176   1.322249   1.329574

      Natural orbitals and occupation numbers for root 13
      sym 1:   1.354068   1.319396   1.326536   1.000000   1.354068   1.326536   1.319396

      Natural orbitals and occupation numbers for root 14
      sym 1:   1.000000   1.362283   1.311770   1.311770   1.362283   1.325947   1.325947

      Natural orbitals and occupation numbers for root 15
      sym 1:   1.355540   1.319618   1.324843   1.000000   1.319618   1.355540   1.324843

      Natural orbitals and occupation numbers for root 16
      sym 1:   1.346211   1.346211   1.317657   1.317657   1.000000   1.336132   1.336132

      Natural orbitals and occupation numbers for root 17
      sym 1:   1.317786   1.348875   1.000000   1.333339   1.317786   1.348875   1.333339

      Natural orbitals and occupation numbers for root 18
      sym 1:   1.363095   1.000000   1.296667   1.340238   1.363095   1.296667   1.340238

      Natural orbitals and occupation numbers for root 19
      sym 1:   1.000000   1.637589   1.073291   1.289120   1.637589   1.289120   1.073291

      Natural orbitals and occupation numbers for root 20
      sym 1:   1.072104   1.284483   1.643412   1.643412   1.072104   1.284483   1.000000

      Natural orbitals and occupation numbers for root 21
      sym 1:   1.647608   1.069024   1.000000   1.283369   1.283369   1.069024   1.647608

      ************************************************************************************************************************
      *                                                                                                                      *
      *                                                    Final results                                                     *
      *                                                                                                                      *
      ************************************************************************************************************************


++    Wave function specifications:
      -----------------------------

      Number of closed shell electrons         346
      Number of electrons in active shells       9
      Max number of holes in RAS1 space          0
      Max nr of electrons in RAS3 space          0
      Number of inactive orbitals              173
      Number of active orbitals                  7
      Number of secondary orbitals              98
      Spin quantum number                      2.5
      State symmetry                             1
--

++    Orbital specifications:
      -----------------------

      Symmetry species                           1
                                                 a
      Frozen orbitals                            0
      Inactive orbitals                        173
      Active orbitals                            7
      RAS1 orbitals                              0
      RAS2 orbitals                              7
      RAS3 orbitals                              0
      Secondary orbitals                        98
      Deleted orbitals                           0
      Number of basis functions                278
--

++    CI expansion specifications:
      ----------------------------

      Number of CSFs                            21
      Number of determinants                    21
      Number of root(s) required                21
      CI roots used                              1     2     3     4     5     6     7     8     9    10
                                                11    12    13    14    15    16    17    18    19    20
                                                21
      weights                                0.048 0.048 0.048 0.048 0.048 0.048 0.048 0.048 0.048 0.048
                                             0.048 0.048 0.048 0.048 0.048 0.048 0.048 0.048 0.048 0.048
                                             0.048
      highest root included in the CI           21
      Root passed to geometry opt.              21
--

++    Final optimization conditions:
      ------------------------------

      Average CI energy                          -13925.74491604
      RASSCF energy for state 21                 -13925.62426236
      Super-CI energy                                -0.00000000
      RASSCF energy change                           -0.00000000
      Max change in MO coefficients               0.372E-05
      Max non-diagonal density matrix element    -0.570E-05
      Maximum BLB matrix element                  0.300E-05
      (orbital pair  63, 269 in symmetry   1)
      Norm of electronic gradient            0.100E+00
--


      Final state energy(ies):
      ------------------------

::    RASSCF root number  1 Total energy: -13925.77854049
::    RASSCF root number  2 Total energy: -13925.77852820
::    RASSCF root number  3 Total energy: -13925.77835266
::    RASSCF root number  4 Total energy: -13925.77818169
::    RASSCF root number  5 Total energy: -13925.77792956
::    RASSCF root number  6 Total energy: -13925.77773091
::    RASSCF root number  7 Total energy: -13925.77754066
::    RASSCF root number  8 Total energy: -13925.77712836
::    RASSCF root number  9 Total energy: -13925.77704312
::    RASSCF root number 10 Total energy: -13925.77602709
::    RASSCF root number 11 Total energy: -13925.77601095
::    RASSCF root number 12 Total energy: -13925.74570848
::    RASSCF root number 13 Total energy: -13925.74528341
::    RASSCF root number 14 Total energy: -13925.74495693
::    RASSCF root number 15 Total energy: -13925.74486100
::    RASSCF root number 16 Total energy: -13925.74457823
::    RASSCF root number 17 Total energy: -13925.74451183
::    RASSCF root number 18 Total energy: -13925.74432423
::    RASSCF root number 19 Total energy: -13925.62598550
::    RASSCF root number 20 Total energy: -13925.62575131
::    RASSCF root number 21 Total energy: -13925.62426236

++    Molecular orbitals:
      -------------------

      Pseudonatural active orbitals and approximate occupation numbers


      MOLECULAR ORBITALS FOR SYMMETRY SPECIES 1: a  

      INDEX  ENERGY  OCCUPATION COEFFICIENTS ...
[...]
   6      0.577350269190     0.577350269190     0.577350269190     0.006101255491
   7     -0.577350269190     0.577350269190     0.577350269190     0.006101255491
   8      0.577350269190    -0.577350269190     0.577350269190     0.006101255491
   9     -0.577350269190    -0.577350269190     0.577350269190     0.006101255491
  10      0.706896546391     0.706896546391     0.024383301669     0.003242209201
  11     -0.706896546391     0.706896546391     0.024383301669     0.003242209201
  12      0.706896546391    -0.706896546391     0.024383301669     0.003242209201
  13     -0.706896546391    -0.706896546391     0.024383301669     0.003242209201
  14      0.706896546391     0.024383301669     0.706896546391     0.003242209201
  15     -0.706896546391     0.024383301669     0.706896546391     0.003242209201
  16      0.706896546391    -0.024383301669     0.706896546391     0.003242209201
  17     -0.706896546391    -0.024383301669     0.706896546391     0.003242209201
  18      0.024383301669     0.706896546391     0.706896546391     0.003242209201
  19     -0.024383301669     0.706896546391     0.706896546391     0.003242209201
  20      0.024383301669    -0.706896546391     0.706896546391     0.003242209201
  21     -0.024383301669    -0.706896546391     0.706896546391     0.003242209201
  22      0.479468262571     0.479468262571     0.734996850588     0.006011402970
  23     -0.479468262571     0.479468262571     0.734996850588     0.006011402970
  24      0.479468262571    -0.479468262571     0.734996850588     0.006011402970
  25     -0.479468262571    -0.479468262571     0.734996850588     0.006011402970
  26      0.479468262571     0.734996850588     0.479468262571     0.006011402970
  27     -0.479468262571     0.734996850588     0.479468262571     0.006011402970
  28      0.479468262571    -0.734996850588     0.479468262571     0.006011402970
  29     -0.479468262571    -0.734996850588     0.479468262571     0.006011402970
  30      0.734996850588     0.479468262571     0.479468262571     0.006011402970
  31     -0.734996850588     0.479468262571     0.479468262571     0.006011402970
  32      0.734996850588    -0.479468262571     0.479468262571     0.006011402970
  33     -0.734996850588    -0.479468262571     0.479468262571     0.006011402970
  34      0.192753315488     0.192753315488     0.962129055136     0.005981985059
  35     -0.192753315488     0.192753315488     0.962129055136     0.005981985059
  36      0.192753315488    -0.192753315488     0.962129055136     0.005981985059
  37     -0.192753315488    -0.192753315488     0.962129055136     0.005981985059
  38      0.192753315488     0.962129055136     0.192753315488     0.005981985059
  39     -0.192753315488     0.962129055136     0.192753315488     0.005981985059
  40      0.192753315488    -0.962129055136     0.192753315488     0.005981985059
  41     -0.192753315488    -0.962129055136     0.192753315488     0.005981985059
  42      0.962129055136     0.192753315488     0.192753315488     0.005981985059
  43     -0.962129055136     0.192753315488     0.192753315488     0.005981985059
  44      0.962129055136    -0.192753315488     0.192753315488     0.005981985059
  45     -0.962129055136    -0.192753315488     0.192753315488     0.005981985059
  46      0.693035796133     0.693035796133     0.198501311223     0.005964341288
  47     -0.693035796133     0.693035796133     0.198501311223     0.005964341288
  48      0.693035796133    -0.693035796133     0.198501311223     0.005964341288
  49     -0.693035796133    -0.693035796133     0.198501311223     0.005964341288
  50      0.693035796133     0.198501311223     0.693035796133     0.005964341288
  51     -0.693035796133     0.198501311223     0.693035796133     0.005964341288
  52      0.693035796133    -0.198501311223     0.693035796133     0.005964341288
  53     -0.693035796133    -0.198501311223     0.693035796133     0.005964341288
  54      0.198501311223     0.693035796133     0.693035796133     0.005964341288
  55     -0.198501311223     0.693035796133     0.693035796133     0.005964341288
  56      0.198501311223    -0.693035796133     0.693035796133     0.005964341288
  57     -0.198501311223    -0.693035796133     0.693035796133     0.005964341288
  58      0.360830211552     0.360830211552     0.860001812128     0.005443128475
  59     -0.360830211552     0.360830211552     0.860001812128     0.005443128475
  60      0.360830211552    -0.360830211552     0.860001812128     0.005443128475
  61     -0.360830211552    -0.360830211552     0.860001812128     0.005443128475
  62      0.360830211552     0.860001812128     0.360830211552     0.005443128475
  63     -0.360830211552     0.860001812128     0.360830211552     0.005443128475
  64      0.360830211552    -0.860001812128     0.360830211552     0.005443128475
  65     -0.360830211552    -0.860001812128     0.360830211552     0.005443128475
  66      0.860001812128     0.360830211552     0.360830211552     0.005443128475
  67     -0.860001812128     0.360830211552     0.360830211552     0.005443128475
  68      0.860001812128    -0.360830211552     0.360830211552     0.005443128475
  69     -0.860001812128    -0.360830211552     0.360830211552     0.005443128475
  70      0.649848616150     0.649848616150     0.394199888606     0.006067027592
  71     -0.649848616150     0.649848616150     0.394199888606     0.006067027592
  72      0.649848616150    -0.649848616150     0.394199888606     0.006067027592
  73     -0.649848616150    -0.649848616150     0.394199888606     0.006067027592
  74      0.649848616150     0.394199888606     0.649848616150     0.006067027592
  75     -0.649848616150     0.394199888606     0.649848616150     0.006067027592
  76      0.649848616150    -0.394199888606     0.649848616150     0.006067027592
  77     -0.649848616150    -0.394199888606     0.649848616150     0.006067027592
  78      0.394199888606     0.649848616150     0.649848616150     0.006067027592
  79     -0.394199888606     0.649848616150     0.649848616150     0.006067027592
  80      0.394199888606    -0.649848616150     0.649848616150     0.006067027592
  81     -0.394199888606    -0.649848616150     0.649848616150     0.006067027592
  82      0.193294501323     0.981140782843     0.000000000000     0.003007949555
  83     -0.193294501323     0.981140782843     0.000000000000     0.003007949555
  84      0.193294501323    -0.981140782843     0.000000000000     0.003007949555
  85     -0.193294501323    -0.981140782843     0.000000000000     0.003007949555
  86      0.981140782843     0.193294501323     0.000000000000     0.003007949555
  87     -0.981140782843     0.193294501323     0.000000000000     0.003007949555
  88      0.981140782843    -0.193294501323     0.000000000000     0.003007949555
  89     -0.981140782843    -0.193294501323     0.000000000000     0.003007949555
  90      0.193294501323     0.000000000000     0.981140782843     0.006015899110
  91     -0.193294501323     0.000000000000     0.981140782843     0.006015899110
  92      0.981140782843     0.000000000000     0.193294501323     0.006015899110
  93     -0.981140782843     0.000000000000     0.193294501323     0.006015899110
  94      0.000000000000     0.193294501323     0.981140782843     0.006015899110
  95      0.000000000000    -0.193294501323     0.981140782843     0.006015899110
  96      0.000000000000     0.981140782843     0.193294501323     0.006015899110
  97      0.000000000000    -0.981140782843     0.193294501323     0.006015899110
  98      0.380049491990     0.924966152699     0.000000000000     0.002881964603
  99     -0.380049491990     0.924966152699     0.000000000000     0.002881964603
 100      0.380049491990    -0.924966152699     0.000000000000     0.002881964603
 101     -0.380049491990    -0.924966152699     0.000000000000     0.002881964603
 102      0.924966152699     0.380049491990     0.000000000000     0.002881964603
 103     -0.924966152699     0.380049491990     0.000000000000     0.002881964603
 104      0.924966152699    -0.380049491990     0.000000000000     0.002881964603
 105     -0.924966152699    -0.380049491990     0.000000000000     0.002881964603
 106      0.380049491990     0.000000000000     0.924966152699     0.005763929206
 107     -0.380049491990     0.000000000000     0.924966152699     0.005763929206
 108      0.924966152699     0.000000000000     0.380049491990     0.005763929206
 109     -0.924966152699     0.000000000000     0.380049491990     0.005763929206
 110      0.000000000000     0.380049491990     0.924966152699     0.005763929206
 111      0.000000000000    -0.380049491990     0.924966152699     0.005763929206
 112      0.000000000000     0.924966152699     0.380049491990     0.005763929206
 113      0.000000000000    -0.924966152699     0.380049491990     0.005763929206
 114      0.289955882550     0.793453785658     0.535123047718     0.005916715253
 115     -0.289955882550     0.793453785658     0.535123047718     0.005916715253
 116      0.289955882550    -0.793453785658     0.535123047718     0.005916715253
 117     -0.289955882550    -0.793453785658     0.535123047718     0.005916715253
 118      0.289955882550     0.535123047718     0.793453785658     0.005916715253
 119     -0.289955882550     0.535123047718     0.793453785658     0.005916715253
 120      0.289955882550    -0.535123047718     0.793453785658     0.005916715253
 121     -0.289955882550    -0.535123047718     0.793453785658     0.005916715253
 122      0.793453785658     0.289955882550     0.535123047718     0.005916715253
 123     -0.793453785658     0.289955882550     0.535123047718     0.005916715253
 124      0.793453785658    -0.289955882550     0.535123047718     0.005916715253
 125     -0.793453785658    -0.289955882550     0.535123047718     0.005916715253
 126      0.793453785658     0.535123047718     0.289955882550     0.005916715253
 127     -0.793453785658     0.535123047718     0.289955882550     0.005916715253
 128      0.793453785658    -0.535123047718     0.289955882550     0.005916715253
 129     -0.793453785658    -0.535123047718     0.289955882550     0.005916715253
 130      0.535123047718     0.289955882550     0.793453785658     0.005916715253
 131     -0.535123047718     0.289955882550     0.793453785658     0.005916715253
 132      0.535123047718    -0.289955882550     0.793453785658     0.005916715253
 133     -0.535123047718    -0.289955882550     0.793453785658     0.005916715253
 134      0.535123047718     0.793453785658     0.289955882550     0.005916715253
 135     -0.535123047718     0.793453785658     0.289955882550     0.005916715253
 136      0.535123047718    -0.793453785658     0.289955882550     0.005916715253
 137     -0.535123047718    -0.793453785658     0.289955882550     0.005916715253
 138      0.096841214551     0.828080150669     0.552182074349     0.006072040053
 139     -0.096841214551     0.828080150669     0.552182074349     0.006072040053
 140      0.096841214551    -0.828080150669     0.552182074349     0.006072040053
 141     -0.096841214551    -0.828080150669     0.552182074349     0.006072040053
 142      0.096841214551     0.552182074349     0.828080150669     0.006072040053
 143     -0.096841214551     0.552182074349     0.828080150669     0.006072040053
 144      0.096841214551    -0.552182074349     0.828080150669     0.006072040053
 145     -0.096841214551    -0.552182074349     0.828080150669     0.006072040053
 146      0.828080150669     0.096841214551     0.552182074349     0.006072040053
 147     -0.828080150669     0.096841214551     0.552182074349     0.006072040053
 148      0.828080150669    -0.096841214551     0.552182074349     0.006072040053
 149     -0.828080150669    -0.096841214551     0.552182074349     0.006072040053
 150      0.828080150669     0.552182074349     0.096841214551     0.006072040053
 151     -0.828080150669     0.552182074349     0.096841214551     0.006072040053
 152      0.828080150669    -0.552182074349     0.096841214551     0.006072040053
 153     -0.828080150669    -0.552182074349     0.096841214551     0.006072040053
 154      0.552182074349     0.096841214551     0.828080150669     0.006072040053
 155     -0.552182074349     0.096841214551     0.828080150669     0.006072040053
 156      0.552182074349    -0.096841214551     0.828080150669     0.006072040053
 157     -0.552182074349    -0.096841214551     0.828080150669     0.006072040053
 158      0.552182074349     0.828080150669     0.096841214551     0.006072040053
 159     -0.552182074349     0.828080150669     0.096841214551     0.006072040053
 160      0.552182074349    -0.828080150669     0.096841214551     0.006072040053
 161     -0.552182074349    -0.828080150669     0.096841214551     0.006072040053
 162      0.183343464704     0.907465826531     0.378009189874     0.005664374808
 163     -0.183343464704     0.907465826531     0.378009189874     0.005664374808
 164      0.183343464704    -0.907465826531     0.378009189874     0.005664374808
 165     -0.183343464704    -0.907465826531     0.378009189874     0.005664374808
 166      0.183343464704     0.378009189874     0.907465826531     0.005664374808
 167     -0.183343464704     0.378009189874     0.907465826531     0.005664374808
 168      0.183343464704    -0.378009189874     0.907465826531     0.005664374808
 169     -0.183343464704    -0.378009189874     0.907465826531     0.005664374808
 170      0.907465826531     0.183343464704     0.378009189874     0.005664374808
 171     -0.907465826531     0.183343464704     0.378009189874     0.005664374808
 172      0.907465826531    -0.183343464704     0.378009189874     0.005664374808
 173     -0.907465826531    -0.183343464704     0.378009189874     0.005664374808
 174      0.907465826531     0.378009189874     0.183343464704     0.005664374808
 175     -0.907465826531     0.378009189874     0.183343464704     0.005664374808
 176      0.907465826531    -0.378009189874     0.183343464704     0.005664374808
 177     -0.907465826531    -0.378009189874     0.183343464704     0.005664374808
 178      0.378009189874     0.183343464704     0.907465826531     0.005664374808
 179     -0.378009189874     0.183343464704     0.907465826531     0.005664374808
 180      0.378009189874    -0.183343464704     0.907465826531     0.005664374808
 181     -0.378009189874    -0.183343464704     0.907465826531     0.005664374808
 182      0.378009189874     0.907465826531     0.183343464704     0.005664374808
 183     -0.378009189874     0.907465826531     0.183343464704     0.005664374808
 184      0.378009189874    -0.907465826531     0.183343464704     0.005664374808
 185     -0.378009189874    -0.907465826531     0.183343464704     0.005664374808
  --------------------------------------------------------------------------------
  The cut-off energy for the exact diagonalization of the Zeeman Hamiltonian is:
  E =  1300.907094000 cm(-1).
  The exact diagonalization of the Zeeman Hamiltonian included  16 exchange states.
  The magnetization vector was not calculated.
  Computation of the Zeeman splitting was not requested.

                         HIGH-FIELD POWDER MAGNETIZATION
                              (Units: Bohr magneton)

-----------|---------------|---------------|---------------|---------------|
   H(T)    |STATISTICAL SUM|     2.000 K.  |     4.000 K.  |     6.000 K.  |
-----------|---------------|---------------|---------------|---------------|
  0.000100 |     1.9993725 |  0.0010141092 |  0.0005137745 |  0.0003469658 |
  0.100000 |     1.5338159 |  0.9944941380 |  0.5112616868 |  0.3462168908 |
  0.200000 |     1.2849669 |  1.8832957984 |  1.0078670358 |  0.6879970941 |
  0.300000 |     1.1521319 |  2.6075982357 |  1.4771226487 |  1.0211785840 |
  0.400000 |     1.0812234 |  3.1621187571 |  1.9096868506 |  1.3421103876 |
  0.500000 |     1.0433699 |  3.5725458369 |  2.3000924256 |  1.6478217310 |
  0.600000 |     1.0231609 |  3.8727709758 |  2.6464739689 |  1.9361101439 |
  0.700000 |     1.0123707 |  4.0930977419 |  2.9498012861 |  2.2055506679 |
  0.800000 |     1.0066087 |  4.2568615949 |  3.2129536839 |  2.4554405859 |
  0.900000 |     1.0035313 |  4.3808397518 |  3.4398741745 |  2.6857004626 |
  1.000000 |     1.0018875 |  4.4767267662 |  3.6349169150 |  2.8967529254 |
  1.100000 |     1.0010091 |  4.5525853285 |  3.8024061841 |  3.0893972563 |
  1.200000 |     1.0005397 |  4.6139758183 |  3.9463750153 |  3.2646926289 |
  1.300000 |     1.0002888 |  4.6647594344 |  4.0704357125 |  3.4238574863 |
  1.400000 |     1.0001546 |  4.7076465650 |  4.1777373012 |  3.5681881362 |
  1.500000 |     1.0000828 |  4.7445648227 |  4.2709748786 |  3.6989965272 |
  1.600000 |     1.0000443 |  4.7769048559 |  4.3524264611 |  3.8175653140 |
  1.700000 |     1.0000238 |  4.8056849087 |  4.4240016926 |  3.9251174438 |
  1.800000 |     1.0000128 |  4.8316617198 |  4.4872931260 |  4.0227972915 |
  1.900000 |     1.0000068 |  4.8554059658 |  4.5436250216 |  4.1116605680 |
  2.000000 |     1.0000037 |  4.8773541567 |  4.5940972539 |  4.1926706095 |
  2.100000 |     1.0000020 |  4.8978447714 |  4.6396234814 |  4.2666991047 |
  2.200000 |     1.0000011 |  4.9171437403 |  4.6809635949 |  4.3345297498 |
  2.300000 |     1.0000006 |  4.9354626523 |  4.7187508943 |  4.3968636943 |
  2.400000 |     1.0000003 |  4.9529719303 |  4.7535146246 |  4.4543259589 |
  2.500000 |     1.0000002 |  4.9698104900 |  4.7856985394 |  4.5074722444 |
  2.600000 |     1.0000001 |  4.9860929079 |  4.8156761275 |  4.5567957445 |
  2.700000 |     1.0000000 |  5.0019148047 |  4.8437630728 |  4.6027337077 |
  2.800000 |     1.0000000 |  5.0173569363 |  4.8702274376 |  4.6456735981 |
  2.900000 |     1.0000000 |  5.0324883365 |  4.8952979851 |  4.6859587722 |
  3.000000 |     1.0000000 |  5.0473687572 |  4.9191709838 |  4.7238936398 |
  3.100000 |     1.0000000 |  5.0620505829 |  4.9420157789 |  4.7597483040 |
  3.200000 |     1.0000000 |  5.0765803466 |  4.9639793589 |  4.7937627027 |
  3.300000 |     1.0000000 |  5.0909999418 |  4.9851901077 |  4.8261502791 |
  3.400000 |     1.0000000 |  5.1053475991 |  5.0057608903 |  4.8571012184 |
  3.500000 |     1.0000000 |  5.1196586787 |  5.0257915961 |  4.8867852913 |
  3.600000 |     1.0000000 |  5.1339663176 |  5.0453712380 |  4.9153543413 |
  3.700000 |     1.0000000 |  5.1483019585 |  5.0645796840 |  4.9429444555 |
  3.800000 |     1.0000000 |  5.1626957825 |  5.0834890863 |  4.9696778517 |
  3.900000 |     1.0000000 |  5.1771770590 |  5.1021650580 |  4.9956645167 |
  4.000000 |     1.0000000 |  5.1917744246 |  5.1206676365 |  5.0210036224 |
  4.100000 |     1.0000000 |  5.2065160961 |  5.1390520677 |  5.0457847481 |
  4.200000 |     1.0000000 |  5.2214300213 |  5.1573694350 |  5.0700889303 |
  4.300000 |     1.0000000 |  5.2365439693 |  5.1756671549 |  5.0939895630 |
  4.400000 |     1.0000000 |  5.2518855570 |  5.1939893553 |  5.1175531654 |
  4.500000 |     1.0000000 |  5.2674822122 |  5.2123771496 |  5.1408400331 |
  4.600000 |     1.0000000 |  5.2833610652 |  5.2308688199 |  5.1639047896 |
  4.700000 |     1.0000000 |  5.2995487695 |  5.2494999169 |  5.1867968488 |
  4.800000 |     1.0000000 |  5.3160712437 |  5.2683032872 |  5.2095608017 |
  4.900000 |     1.0000000 |  5.3329533351 |  5.2873090374 |  5.2322367378 |
  5.000000 |     1.0000000 |  5.3502184048 |  5.3065444430 |  5.2548605108 |
-----------|---------------|---------------|---------------|---------------|
--- Stop Module: single_aniso at Thu Mar  6 12:30:09 2025 /rc=_RC_ALL_IS_WELL_ ---
*** files: xmldump
    saved to directory /media/korden/5fb66ce1-8053-4a4f-9303-c4fa91c2cea8/home/korden/calc/orca/Artem/binucliar_Dyacac_artion_1
--- Module single_aniso spent 25 seconds ---

>>> COPY artion_1.aniso /media/korden/5fb66ce1-8053-4a4f-9303-c4fa91c2cea8/home/korden/calc/orca/Artem/binucliar_Dyacac_artion_1/K1648_artion1_single_ion.aniso

    Timing: Wall=6088.81 User=6058.62 System=26.10