   This run of MOLCAS is using the pymolcas driver

                             OPE
                             OPE          NMOL  CASOP  ENMOLC A   SO
                 OPE        NMOLC        AS  OP EN  MO LC     AS  OP
                OPENM       OL CA        SO  PE NM  OL CA     SOP EN
                OP EN      MO   LC       AS  OP ENMOL  CASO   PENMOL
                OP  EN     MO   LC       AS  OP EN     MO     LC ASO
               OP   E  NMOL  C  AS       OP  EN MO     LC     AS  OP
               OP  E   NMO   LC AS        OPEN  MO     LCASOP EN   M
               O  PEN   MO  LCA  SO
            OPE   NMO   L   CAS    OP
        OPENMOL  CASOP     ENMOL   CASOPE
     OPENMOLCA   SOPENMOLCASOPEN   MOLCASOPE
    OPENMOLCAS   OP           EN   MOL    CAS
    OPENMOLCAS       OP  ENM        O     LCA
    OPENMOLCAS    OPEN  MOLCASO     P  E  NMO
    OPENMOLCAS     OP               E  N  MOL
    OPENMOLCA   SO           PENM   O  L  CAS    OPEN    MO    LCAS
    OPENMOLCA   SOP           ENM   O  L  CAS   OP  EN  MOLC  AS   O
    OPENMOLCA   SOPE           NM      O  LCA   S      OP  EN MO
    OPENMOLC                AS         O  PEN   M      OL  CA  SOPE
    OPENMO        LCASOPE  NMOL        C  ASO   P      ENMOLC     AS
    OPE     NMO      LCA  SO     P     E   NM   OL  CA SO  PE N   MO
          OPENMOLCA            SOPE   NMO        LCAS  O    P  ENMO
     OPENMOLCASOPENMOLCASOPENMOLCASOPENMOLCA
        OPENMOLCASOPENMOLCASOPENMOLCASOPE
            OPENMOLCASOPENMOLCASOPENM
               OPENMOLCASOPENMOLCA        version: v19.11 ?
                   OPENMOLCASO
                       OPE                tag:

 OpenMolcas is free software; you can redistribute it and/or modify it
 under the terms of the GNU Lesser General Public License version 2.1.
 OpenMolcas is distributed in the hope that it will be useful, but it
 is provided "as is" and without any express or implied warranties.
 For more details see the full text of the license in the file
 LICENSE or in <http://www.gnu.org/licenses/>.

                 Copyright (C) The OpenMolcas Authors
           For the author list and the recommended citation,
                   consult the file CONTRIBUTORS.md

           *************************************************
           * pymolcas version py2.06                       *
           *   build 99e611e35fc7aec87fd6f34cfa558dd4      *
           *   (after the EMIL interpreter by V. Veryazov) *
           *************************************************


   -------------------------------------------------------------------------------------------------------------------------------
  |
  |              Project: artion1new
  |       Submitted from: /media/korden/5fb66ce1-8053-4a4f-9303-c4fa91c2cea8/home/korden/calc/orca/Artem/binucliar_Dyacac_artion_1
  |         Scratch area: /tmp/artion1new
  |      Save outputs to: /media/korden/5fb66ce1-8053-4a4f-9303-c4fa91c2cea8/home/korden/calc/orca/Artem/binucliar_Dyacac_artion_1
  |               Molcas: /usr/share/openmolcas
  |
  | Scratch area is NOT empty
  |
  |        MOLCAS_COLOR = YES
  |       MOLCAS_DRIVER = /usr/bin/pymolcas
  | MOLCAS_KEEP_WORKDIR = YES
  |      MOLCAS_MAXITER = 100
  |       MOLCAS_MOLDEN = YES
  |  MOLCAS_NEW_WORKDIR = NO
  |       MOLCAS_NPROCS = 1
  |        MOLCAS_PRINT = NORMAL
  |         MOLCAS_SAVE = ORIG
  |       MOLCAS_SOURCE = /home/korden/build
  |    MOLCAS_STRUCTURE = 0
  |         MOLCAS_TRAP = YES
  |
   -------------------------------------------------------------------------------------------------------------------------------

++ ---------   Input file   ---------

&GATEWAY
Douglas-Kroll

AMFI
ANGM
 -5.248000000 2.268000000 4.899000000  Angstrom

Basis Set
N.ANO-RCC-VTZP.
 N1    -3.435000000 5.141000000 8.277000000    Angstrom
 N2    -4.939000000 4.004000000 6.832000000    Angstrom
 N3    -2.846000000 3.077000000 5.404000000    Angstrom
 N4    -1.342000000 4.214000000 6.848000000    Angstrom
End of Basis Set

Basis Set
C.ANO-RCC-MB.
 C1    -3.711000000 4.365000000 7.237000000    Angstrom
 C2    -4.476000000 5.594000000 8.981000000    Angstrom
 C3    -5.768000000 5.294000000 8.650000000    Angstrom
 C4    -5.958000000 4.474000000 7.560000000    Angstrom
 C5    -2.571000000 3.853000000 6.444000000    Angstrom
 C6    -1.805000000 2.624000000 4.699000000    Angstrom
 C7    -0.513000000 2.924000000 5.030000000    Angstrom
 C8    -0.324000000 3.744000000 6.121000000    Angstrom
 C9    -3.809000000 0.230000000 8.834000000    Angstrom
 C10    -4.826000000 0.662000000 7.801000000    Angstrom
 C11    -6.183000000 0.560000000 8.095000000    Angstrom
 C12    -7.211000000 1.035000000 7.293000000    Angstrom
 C13    -8.647000000 0.811000000 7.720000000    Angstrom
 C14    -4.707000000 4.072000000 2.137000000    Angstrom
 C15    -5.940000000 4.699000000 2.155000000    Angstrom
 C16    -6.854000000 4.657000000 3.212000000    Angstrom
 C17    -8.171000000 5.371000000 3.047000000    Angstrom
 C18    -6.509000000 0.594000000 2.317000000    Angstrom
 C19    -5.303000000 -0.020000000 1.980000000    Angstrom
 C20    -4.153000000 0.000000000 2.753000000    Angstrom
 C21    -2.916000000 -0.760000000 2.293000000    Angstrom
 C22    -3.546000000 1.317000000 9.862000000    Angstrom
 C23    -2.549000000 3.451000000 0.959000000    Angstrom
 C24    -3.929000000 4.032000000 0.809000000    Angstrom
 C25    -8.701000000 1.350000000 1.450000000    Angstrom
 C26    -7.715000000 0.255000000 1.477000000    Angstrom
End of Basis Set

Basis Set
H.ANO-RCC-MB.
 H1    -4.313000000 6.143000000 9.739000000    Angstrom
 H2    -6.501000000 5.635000000 9.150000000    Angstrom
 H3    -6.844000000 4.235000000 7.315000000    Angstrom
 H4    -1.969000000 2.075000000 3.942000000    Angstrom
 H5    0.219000000 2.583000000 4.530000000    Angstrom
 H6    0.563000000 3.983000000 6.366000000    Angstrom
 H7    -4.137000000 -0.582000000 9.295000000    Angstrom
 H8    -2.960000000 0.000000000 8.380000000    Angstrom
 H9    -6.424000000 0.132000000 8.908000000    Angstrom
 H10    -8.969000000 1.598000000 8.207000000    Angstrom
 H11    -9.205000000 0.666000000 6.927000000    Angstrom
 H12    -8.695000000 0.024000000 8.302000000    Angstrom
 H13    -6.185000000 5.197000000 1.384000000    Angstrom
 H14    -8.486000000 5.682000000 3.921000000    Angstrom
 H15    -8.054000000 6.140000000 2.450000000    Angstrom
 H16    -8.830000000 4.757000000 2.662000000    Angstrom
 H17    -5.268000000 -0.489000000 1.154000000    Angstrom
 H18    -2.750000000 -1.511000000 2.900000000    Angstrom
 H19    -3.058000000 -1.098000000 1.385000000    Angstrom
 H20    -2.142000000 -0.158000000 2.300000000    Angstrom
 H21    -4.353000000 1.458000000 10.402000000    Angstrom
 H22    -2.808000000 1.044000000 10.446000000    Angstrom
 H23    -3.310000000 2.150000000 9.405000000    Angstrom
 H24    -2.043000000 3.972000000 1.620000000    Angstrom
 H25    -2.610000000 2.519000000 1.260000000    Angstrom
 H26    -2.082000000 3.483000000 0.097000000    Angstrom
 H27    -3.862000000 4.949000000 0.447000000    Angstrom
 H28    -4.441000000 3.487000000 0.156000000    Angstrom
 H29    -8.818000000 1.710000000 2.350000000    Angstrom
 H30    -8.380000000 2.065000000 0.852000000    Angstrom
 H31    -9.558000000 1.014000000 1.113000000    Angstrom
 H32    -8.143000000 -0.563000000 1.832000000    Angstrom
 H33    -7.416000000 0.057000000 0.547000000    Angstrom
End of Basis Set

Basis Set
Dy.ANO-RCC-VTZP.
 Dy1    -5.248000000 2.268000000 4.899000000    Angstrom
End of Basis Set

Basis Set
O.ANO-RCC-VTZP.
 O1    -4.366000000 1.140000000 6.717000000    Angstrom
 O2    -7.035000000 1.699000000 6.218000000    Angstrom
 O3    -4.286000000 3.298000000 3.046000000    Angstrom
 O4    -6.658000000 4.032000000 4.307000000    Angstrom
 O5    -6.681000000 1.294000000 3.360000000    Angstrom
 O6    -4.036000000 0.596000000 3.868000000    Angstrom
End of Basis Set

&SEWARD
HIGH Cholesky

&RASSCF
SYMM
1
CIMX
200
charge
0
Spin
6
ciroot
21 21 1
Nactel
9 0 0
Ras2
7
ORBL
nocore
ORBA
compact

>>> COPY $Project.JobIph JOB001

&RASSI
spinorbit
nrofjobiphs=1 21
1 2 3 4 5 6 7 8 9 10 11 12 13 14 15 16 17 18 19 20 21
mees
PROP
3
'ANGMOM' 1
'ANGMOM' 2
'ANGMOM' 3

&SINGLE_ANISO
MLTP
8
2 2 2 2 2 2 2 2
CRYS
Dy
XFIE
0.5
TINT
0 300 301
HINT
0 5 51
TMAG
3 2.0 4.0 6.0
UBAR

>>> COPY $Project.aniso $CurrDir/./master/inputs/artion1new.aniso

-- ----------------------------------

--- Start Module: gateway at Thu Mar 27 10:21:29 2025 ---

()()()()()()()()()()()()()()()()()()()()()()()()()()()()()()()()()()()()()()()()()()()()()()()()()()

                                              &GATEWAY

                                   only a single process is used
                       available to each process: 32 GB of memory, 1 thread?
                                             pid: 2472
()()()()()()()()()()()()()()()()()()()()()()()()()()()()()()()()()()()()()()()()()()()()()()()()()()


++    Symmetry information:
      ---------------------

                    Character Table for C1 

                             E  
                    a        1  x, y, xy, Rz, z, xz, Ry, yz, Rx, I
--


++    Basis set information:
      ----------------------


      Basis set label: N.ANO-RCC...4S3P2D1F.

      Electronic valence basis set:
      ------------------
      Associated Effective Charge   7.000000 au
      Associated Actual Charge      7.000000 au
      Nuclear Model: Point charge

      Shell  nPrim  nBasis  Cartesian Spherical Contaminant
         s      14       4        X                  
         p       9       3        X                  
         d       4       2                 X         
         f       3       1                 X         


      Basis set label: C.ANO-RCC...2S1P.

      Electronic valence basis set:
      ------------------
      Associated Effective Charge   6.000000 au
      Associated Actual Charge      6.000000 au
      Nuclear Model: Point charge

      Shell  nPrim  nBasis  Cartesian Spherical Contaminant
         s      14       2        X                  
         p       9       1        X                  


      Basis set label: H.ANO-RCC...1S.

      Electronic valence basis set:
      ------------------
      Associated Effective Charge   1.000000 au
      Associated Actual Charge      1.000000 au
      Nuclear Model: Point charge

      Shell  nPrim  nBasis  Cartesian Spherical Contaminant
         s       8       1        X                  


      Basis set label: DY.ANO-RCC...8S7P5D3F2G1H.

      Electronic valence basis set:
      ------------------
      Associated Effective Charge  66.000000 au
      Associated Actual Charge     66.000000 au
      Nuclear Model: Point charge

      Shell  nPrim  nBasis  Cartesian Spherical Contaminant
         s      25       8        X                  
         p      22       7        X                  
         d      15       5                 X         
         f      11       3                 X         
         g       4       2                 X         
         h       2       1                 X         


      Basis set label: O.ANO-RCC...4S3P2D1F.

      Electronic valence basis set:
      ------------------
      Associated Effective Charge   8.000000 au
      Associated Actual Charge      8.000000 au
      Nuclear Model: Point charge

      Shell  nPrim  nBasis  Cartesian Spherical Contaminant
         s      14       4        X                  
         p       9       3        X                  
         d       4       2                 X         
         f       3       1                 X         
--


++    Molecular structure info:
      -------------------------

                    ************************************************ 
                    **** Cartesian Coordinates / Bohr, Angstrom **** 
                    ************************************************ 

     Center  Label                x              y              z                     x              y              z
        1      N1              -6.491209       9.715082      15.641263             -3.435000       5.141000       8.277000
        2      N2              -9.333357       7.566463      12.910609             -4.939000       4.004000       6.832000
        3      N3              -5.378161       5.814687      10.212080             -2.846000       3.077000       5.404000
        4      N4              -2.536012       7.963306      12.940845             -1.342000       4.214000       6.848000
        5      C1              -7.012774       8.248655      13.675948             -3.711000       4.365000       7.237000
        6      C2              -8.458414      10.571128      16.971630             -4.476000       5.594000       8.981000
        7      C3             -10.899940      10.004210      16.346131             -5.768000       5.294000       8.650000
        8      C4             -11.258988       8.454635      14.286330             -5.958000       4.474000       7.560000
        9      C5              -4.858486       7.281115      12.177395             -2.571000       3.853000       6.444000
       10      C6              -3.410956       4.958641       8.879823             -1.805000       2.624000       4.699000
       11      C7              -0.969430       5.525559       9.505322             -0.513000       2.924000       5.030000
       12      C8              -0.612271       7.075135      11.567014             -0.324000       3.744000       6.121000
       13      C9              -7.197967       0.434637      16.693841             -3.809000       0.230000       8.834000
       14      C10             -9.119818       1.250999      14.741753             -4.826000       0.662000       7.801000
       15      C11            -11.684177       1.058247      15.297333             -6.183000       0.560000       8.095000
       16      C12            -13.626815       1.955867      13.781773             -7.211000       1.035000       7.293000
       17      C13            -16.340462       1.532568      14.588686             -8.647000       0.811000       7.720000
       18      C14             -8.894941       7.694965       4.038345             -4.707000       4.072000       2.137000
       19      C15            -11.224973       8.879823       4.072360             -5.940000       4.699000       2.155000
       20      C16            -12.952183       8.800455       6.069800             -6.854000       4.657000       3.212000
       21      C17            -15.440952      10.149719       5.757996             -8.171000       5.371000       3.047000
       22      C18            -12.300227       1.122497       4.378495             -6.509000       0.594000       2.317000
       23      C19            -10.021218      -0.037795       3.741658             -5.303000      -0.020000       1.980000
       24      C20             -7.848033       0.000000       5.202416             -4.153000       0.000000       2.753000
       25      C21             -5.510441      -1.436192       4.333142             -2.916000      -0.760000       2.293000
       26      C22             -6.700969       2.488769      18.636479             -3.546000       1.317000       9.862000
       27      C23             -4.816912       6.521445       1.812247             -2.549000       3.451000       0.959000
       28      C24             -7.424734       7.619376       1.528788             -3.929000       4.032000       0.809000
       29      C25            -16.442507       2.551130       2.740103             -8.701000       1.350000       1.450000
       30      C26            -14.579237       0.481880       2.791125             -7.715000       0.255000       1.477000
       31      H1              -8.150389      11.608588      18.404043             -4.313000       6.143000       9.739000
       32      H2             -12.285110      10.648607      17.290994             -6.501000       5.635000       9.150000
       33      H3             -12.933286       8.002990      13.823347             -6.844000       4.235000       7.315000
       34      H4              -3.720871       3.921182       7.449300             -1.969000       2.075000       3.942000
       35      H5               0.413850       4.881163       8.560459              0.219000       2.583000       4.530000
       36      H6               1.063916       7.526779      12.029997              0.563000       3.983000       6.366000
       37      H7              -7.817797      -1.099821      17.565004             -4.137000      -0.582000       9.295000
       38      H8              -5.593589       0.000000      15.835905             -2.960000       0.000000       8.380000
       39      H9             -12.139601       0.249444      16.833680             -6.424000       0.132000       8.908000
       40      H10            -16.948954       3.019782      15.508982             -8.969000       1.598000       8.207000
       41      H11            -17.394929       1.258558      13.090133             -9.205000       0.666000       6.927000
       42      H12            -16.431169       0.045353      15.688506             -8.695000       0.024000       8.302000
       43      H13            -11.687956       9.820907       2.615381             -6.185000       5.197000       1.384000
       44      H14            -16.036216      10.737424       7.409616             -8.486000       5.682000       3.921000
       45      H15            -15.219854      11.602918       4.629829             -8.054000       6.140000       2.450000
       46      H16            -16.686282       8.989427       5.030451             -8.830000       4.757000       2.662000
       47      H17             -9.955077      -0.924076       2.180744             -5.268000      -0.489000       1.154000
       48      H18             -5.196747      -2.855376       5.480206             -2.750000      -1.511000       2.900000
       49      H19             -5.778782      -2.074919       2.617271             -3.058000      -1.098000       1.385000
       50      H20             -4.047793      -0.298577       4.346370             -2.142000      -0.158000       2.300000
       51      H21             -8.225978       2.755221      19.656931             -4.353000       1.458000      10.402000
       52      H22             -5.306351       1.972874      19.740079             -2.808000       1.044000      10.446000
       53      H23             -6.254993       4.062911      17.772874             -3.310000       2.150000       9.405000
       54      H24             -3.860710       7.505992       3.061356             -2.043000       3.972000       1.620000
       55      H25             -4.932185       4.760220       2.381055             -2.610000       2.519000       1.260000
       56      H26             -3.934410       6.581916       0.183303             -2.082000       3.483000       0.097000
       57      H27             -7.298122       9.352255       0.844708             -3.862000       4.949000       0.447000
       58      H28             -8.392274       6.589475       0.294797             -4.441000       3.487000       0.156000
       59      H29            -16.663605       3.231432       4.440856             -8.818000       1.710000       2.350000
       60      H30            -15.835905       3.902284       1.610047             -8.380000       2.065000       0.852000
       61      H31            -18.062002       1.916182       2.103265             -9.558000       1.014000       1.113000
       62      H32            -15.388040      -1.063916       3.461978             -8.143000      -0.563000       1.832000
       63      H33            -14.014209       0.107714       1.033680             -7.416000       0.057000       0.547000
       64      DY1             -9.917283       4.285899       9.257768             -5.248000       2.268000       4.899000
       65      O1              -8.250544       2.154288      12.693290             -4.366000       1.140000       6.717000
       66      O2             -13.294223       3.210645      11.750317             -7.035000       1.699000       6.218000
       67      O3              -8.099366       6.232317       5.756106             -4.286000       3.298000       3.046000
       68      O4             -12.581797       7.619376       8.139050             -6.658000       4.032000       4.307000
       69      O5             -12.625260       2.445306       6.349480             -6.681000       1.294000       3.360000
       70      O6              -7.626935       1.126277       7.309461             -4.036000       0.596000       3.868000

                    ************************************************* 
                    **** InterNuclear Distances / Bohr, Angstrom **** 
                    ************************************************* 

     Atom centers         Bohr        Angstrom
   34 H4       10 C6      1.794092        0.949392
   35 H5       11 C7      1.794847        0.949792
   33 H3        8 C4      1.794884        0.949812
   39 H9       15 C11     1.794975        0.949860
   43 H13      19 C15     1.795210        0.949984
   31 H1        6 C2      1.795274        0.950018
   47 H17      23 C19     1.796196        0.950506
   32 H2        7 C3      1.796304        0.950563
   36 H6       12 C8      1.796647        0.950744
   59 H29      29 C25     1.845063        0.976365
   53 H23      26 C22     1.850035        0.978996
   49 H19      25 C21     1.850458        0.979220
   46 H16      21 C17     1.851066        0.979542
   44 H14      21 C17     1.851374        0.979705
   48 H18      25 C21     1.851552        0.979799
   40 H10      17 C13     1.851760        0.979909
   52 H22      26 C22   
   42 H12      17 C13     1.851929        0.979998
   61 H31      29 C25     1.852427        0.980262
   41 H11      17 C13     1.852739        0.980427
   45 H15      21 C17     1.852952        0.980540
   50 H20      25 C21     1.853020        0.980576
   56 H26      27 C23     1.853625        0.980896
   51 H21      26 C22     1.854177        0.981188
   55 H25      27 C23     1.854385        0.981298
   54 H24      27 C23     1.855782        0.982038
   60 H30      29 C25     1.862958        0.985835
   57 H27      28 C24     1.867315        0.988141
   62 H32      30 C26     1.869142        0.989107
   37 H7       13 C9      1.870207        0.989671
   38 H8       13 C9      1.870559        0.989857
   58 H28      28 C24     1.876050        0.992763
   63 H33      30 C26     1.883579        0.996747
   67 O3       18 C14     2.392275        1.265938
   69 O5       22 C18     2.395881        1.267846
   70 O6       24 C20     2.399379        1.269697
   65 O1       14 C10     2.401618        1.270882
   66 O2       16 C12     2.410788        1.275734
   68 O4       20 C16     2.411209        1.275957
    9 C5        3 N3      2.506578        1.326424
    5 C1        1 N1      2.506971        1.326632
    6 C2        1 N1      2.524398        1.335854
   12 C8        4 N4      2.525280        1.336321
   10 C6        3 N3      2.525395        1.336381
    8 C4        2 N2      2.527748        1.337627
    5 C1        2 N2      2.536974        1.342509
    9 C5        4 N4      2.538134        1.343122
    7 C3        6 C2      2.583350        1.367050
   11 C7       10 C6    
    8 C4        7 C3      2.602476        1.377171
   12 C8       11 C7      2.603712        1.377825
   19 C15      18 C14     2.614211        1.383381
   24 C20      23 C19     2.618774        1.385795
   16 C12      15 C11     2.622306        1.387665
   15 C11      14 C10     2.630923        1.392224
   23 C19      22 C18     2.635474        1.394633
   20 C16      19 C15     2.641841        1.398002
   30 C26      29 C25     2.784991        1.473754
    9 C5        5 C1      2.796918        1.480065
   28 C24      27 C23     2.843684        1.504813
   21 C17      20 C16     2.848106        1.507153
   30 C26      22 C18     2.850266        1.508296
   14 C10      13 C9      2.858427        1.512614
   17 C13      16 C12     2.862546        1.514794
   26 C22      13 C9      2.870594        1.519053
   25 C21      24 C20     2.877954        1.522947
   28 C24      18 C14     2.909484        1.539632
   58 H28      57 H27     3.022006        1.599177
   53 H23      52 H22     3.022925        1.599663
   46 H16      44 H14     3.022996        1.599701
   46 H16      45 H15     3.023449        1.599940
   50 H20      49 H19     3.023492        1.599963
   56 H26      54 H24     3.023663        1.600053
   45 H15      44 H14     3.023697        1.600072
   50 H20      48 H18     3.023723        1.600085
   52 H22      51 H21     3.023773        1.600112
   61 H31      60 H30     3.023802        1.600127
   49 H19      48 H18     3.023945        1.600203
   56 H26      55 H25   
   53 H23      51 H21     3.023988        1.600226
   38 H8       37 H7      3.024316        1.600399
   42 H12      40 H10     3.024493        1.600493
   60 H30      59 H29     3.024668        1.600585
   61 H31      59 H29     3.024852        1.600683
   55 H25      54 H24     3.024919        1.600718
   41 H11      40 H10     3.025168        1.600850
   42 H12      41 H11     3.025267        1.600903
   63 H33      62 H32     3.026014        1.601298
   34 H4        3 N3      3.736967        1.977518
   31 H1        1 N1      3.737806        1.977962
   36 H6        4 N4      3.738941        1.978563
   33 H3        2 N2      3.739402        1.978806
   43 H13      18 C14     3.787531        2.004275
   31 H1        7 C3      3.790654        2.005928
   34 H4       11 C7      3.791000        2.006111
   47 H17      24 C20     3.797901        2.009763
   39 H9       16 C12     3.799714        2.010722
   39 H9       14 C10     3.807671        2.014933
   33 H3        7 C3      3.808388        2.015312
   36 H6       11 C7      3.809640        2.015974
   47 H17      22 C18     3.810289        2.016318
   43 H13      20 C16     3.817408        2.020085
   59 H29      30 C26     3.824426        2.023799
   61 H31      30 C26     3.828842        2.026136
   60 H30      30 C26     3.830578        2.027055
   62 H32      29 C25     3.834262        2.029004
   35 H5       10 C6      3.838898        2.031457
   32 H2        6 C2      3.840780        2.032453
   63 H33      29 C25     3.844319        2.034326
   32 H2        8 C4      3.859332        2.042271
   35 H5       12 C8      3.860804        2.043049
   44 H14      20 C16     3.880492        2.053468
   46 H16      20 C16     3.880651        2.053552
   54 H24      28 C24     3.881222        2.053854
   56 H26      28 C24     3.881883        2.054204
   45 H15      20 C16     3.881965        2.054248
   58 H28      27 C23     3.884649        2.055668
   57 H27      27 C23     3.886647        2.056725
   55 H25      28 C24     3.887664        2.057263
   42 H12      16 C12     3.892312        2.059723
   40 H10      16 C12     3.892528        2.059837
   62 H32      22 C18     3.892941        2.060056
   63 H33      22 C18     3.892982        2.060077
   41 H11      16 C12     3.894007        2.060620
   37 H7       14 C10     3.897737        2.062594
   38 H8       14 C10     3.898263        2.062872
   53 H23      13 C9      3.901011        2.064326
   51 H21      13 C9      3.901515        2.064593
   52 H22      13 C9      3.901788        2.064738
   48 H18      24 C20     3.906361        2.067157
   38 H8       26 C22     3.906850        2.067416
   50 H20      24 C20     3.906889        2.067437
   49 H19      24 C20     3.907693        2.067862
   37 H7       26 C22     3.908112        2.068084
   58 H28      18 C14     3.935598        2.082629
   57 H27      18 C14     3.936465        2.083088
   62 H32      61 H31     4.228139        2.237435
   63 H33      60 H30     4.248475        2.248196
    6 C2        5 C1      4.283139        2.266540
   10 C6        9 C5      4.285231        2.267647
    8 C4        5 C1      4.294803        2.272712
   12 C8        9 C5    
   66 O2       64 DY1     4.332747        2.292791
   63 H33      47 H17     4.342453        2.297927
   49 H19      47 H17     4.353899        2.303984
   70 O6       64 DY1     4.361744        2.308135
   65 O1       64 DY1     4.373168        2.314181
   69 O5       64 DY1     4.379391        2.317474
   52 H22      38 H8      4.383756        2.319784
   35 H5       34 H4      4.387728        2.321885
   32 H2       31 H1      4.388207        2.322139
   67 O3       64 DY1     4.399432        2.328079
   51 H21      37 H7      4.405010        2.331031
   57 H27      56 H26     4.407584        2.332393
   33 H3       32 H2      4.409535        2.333425
   36 H6       35 H5      4.411299        2.334359
   68 O4       64 DY1     4.411715        2.334579
   12 C8       10 C6      4.419635        2.338770
    8 C4        6 C2      4.419683        2.338796
   67 O3       19 C15     4.428737        2.343587
   58 H28      55 H25     4.435184        2.346998
   45 H15      43 H13     4.439355        2.349205
   69 O5       23 C19     4.443823        2.351570
   42 H12      39 H9      4.446418        2.352943
   65 O1       15 C11     4.446591        2.353035
   66 O2       15 C11     4.450437        2.355070
   70 O6       23 C19     4.451614        2.355693
   58 H28      56 H26     4.459264        2.359741
   70 O6       25 C21     4.461419        2.360881
   68 O4       19 C15     4.468520        2.364639
    7 C3        1 N1      4.474075        2.367578
   11 C7        3 N3      4.474373        2.367736
   65 O1       13 C9      4.479902        2.370662
   57 H27      54 H24     4.487540        2.374704
    4 N4        3 N3      4.487819        2.374852
    2 N2        1 N1      4.488969        2.375460
   66 O2       17 C13     4.489081        2.375519
    7 C3        2 N2      4.494397        2.378332
   11 C7        4 N4    
   68 O4       21 C17     4.499648        2.381111
   67 O3       28 C24     4.499919        2.381255
   69 O5       30 C26     4.509429        2.386287
   52 H22      37 H7      4.525457        2.394769
   69 O5       59 H29     4.535313        2.399984
    9 C5        1 N1      4.537440        2.401110
    5 C1        3 N3      4.538121        2.401470
    9 C5        2 N2      4.543512        2.404323
    5 C1        4 N4      4.545678        2.405469
   53 H23      38 H8      4.549346        2.407410
   63 H33      61 H31     4.560614        2.413373
   39 H9       37 H7      4.586212        2.426919
   62 H32      59 H29     4.586423        2.427031
   65 O1       38 H8      4.645039        2.458049
   16 C12      14 C10     4.661697        2.466864
   24 C20      22 C18     4.664856        2.468536
   20 C16      18 C14     4.670132        2.471327
   29 C25      22 C18     4.678013        2.475498
   30 C26      23 C19     4.684988        2.479189
   68 O4       44 H14     4.710341        2.492605
   21 C17      19 C15     4.714709        2.494917
   17 C13      15 C11     4.733725        2.504979
   66 O2       41 H11     4.735139        2.505727
   15 C11      13 C9      4.739747        2.508166
   28 C24      19 C15     4.743448        2.510125
   26 C22      14 C10     4.748873        2.512995
   57 H27      43 H13     4.756633        2.517102
   25 C21      23 C19     4.759461        2.518598
   27 C23      18 C14     4.791970        2.535801
   70 O6       34 H4      4.805037        2.542716
   63 H33      23 C19     4.826831        2.554249
   49 H19      23 C19     4.838634        2.560495
   59 H29      22 C18     4.846706        2.564766
   67 O3       55 H25     4.856858        2.570139
   70 O6       50 H20     4.860079        2.571843
   45 H15      19 C15     4.866733        2.575364
   42 H12      15 C11     4.869590        2.576876
   47 H17      30 C26     4.871564        2.577920
   64 DY1       3 N3      4.883803        2.584397
   43 H13      21 C17     4.906029        2.596159
   43 H13      28 C24     4.919602        2.603341
   39 H9       17 C13     4.932914        2.610386
   64 DY1       2 N2      4.944322        2.616422
   39 H9       13 C9      4.947080        2.617882
   47 H17      25 C21     4.964863        2.627293
   37 H7       15 C11     4.974784        2.632542
   70 O6       48 H18     5.010544        2.651465
   53 H23      14 C10     5.030086        2.661807
    7 C3        5 C1      5.032089        2.662867
   11 C7        9 C5      5.034551        2.664170
    3 N3        2 N2      5.098466        2.697992
    4 N4        1 N1      5.099467        2.698522
   57 H27      19 C15     5.105006        2.701453
   12 C8        3 N3      5.112560        2.705450
    8 C4        1 N1      5.114322        2.706383
    6 C2        2 N2      5.126932        2.713055
   10 C6        4 N4    
   54 H24      18 C14     5.131636        2.715545
   67 O3       27 C23     5.139272        2.719586
   58 H28      43 H13     5.166119        2.733792
   67 O3       54 H24     5.181711        2.742043
   55 H25      18 C14     5.202189        2.752880
   51 H21      14 C10     5.217337        2.760896
   67 O3       34 H4      5.232540        2.768941
   66 O2       33 H3      5.233957        2.769691
   67 O3        3 N3      5.237851        2.771751
   66 O2       65 O1      5.238682        2.772191
   66 O2       40 H10     5.246051        2.776090
   58 H28      19 C15     5.247843        2.777039
   50 H20      34 H4      5.247992        2.777118
   69 O5       29 C25     5.254538        2.780582
   70 O6       69 O5      5.257819        2.782318
   68 O4       67 O3      5.262560        2.784827
   65 O1        3 N3      5.273094        2.790401
   55 H25      34 H4      5.278104        2.793052
   60 H30      22 C18     5.281339        2.794764
   69 O5       62 H32     5.318388        2.814370
   62 H32      60 H30     5.319152        2.814774
   63 H33      59 H29     5.327829        2.819366
   68 O4       46 H16     5.327967        2.819439
   70 O6       67 O3      5.357961        2.835311
   58 H28      54 H24     5.387849        2.851127
   57 H27      55 H25     5.389323        2.851907
   51 H21      38 H8      5.396383        2.855643
   53 H23      37 H7      5.398089        2.856546
   51 H21      39 H9      5.437472        2.877386
   62 H32      23 C19     5.471191        2.895229
   69 O5       68 O4      5.474984        2.897237
   67 O3       58 H28     5.480807        2.900318
   69 O5       24 C20     5.487912        2.904078
   65 O1       16 C12     5.488939        2.904621
   69 O5       66 O2      5.495662        2.908179
   66 O2       14 C10     5.496777        2.908769
   55 H25      50 H20     5.498731        2.909803
   67 O3       20 C16     5.499415        2.910165
   68 O4       18 C14     5.514926        2.918373
   70 O6       22 C18     5.516361        2.919132
   70 O6       65 O1      5.516459        2.919184
   65 O1        2 N2      5.523709        2.923021
   46 H16      19 C15     5.545795        2.934708
   62 H32      47 H17     5.583744        2.954790
   46 H16      43 H13     5.613126        2.970338
   40 H10      15 C11     5.622303        2.975195
   54 H24      34 H4      5.667846        2.999295
--


            Nuclear Potential Energy           6782.45529353 au

--- Stop Module: gateway at Thu Mar 27 10:21:31 2025 /rc=_RC_ALL_IS_WELL_ ---
*** files: xmldump
    saved to directory /media/korden/5fb66ce1-8053-4a4f-9303-c4fa91c2cea8/home/korden/calc/orca/Artem/binucliar_Dyacac_artion_1
--- Module gateway spent 1 second ---

--- Start Module: seward at Thu Mar 27 10:21:31 2025 ---

()()()()()()()()()()()()()()()()()()()()()()()()()()()()()()()()()()()()()()()()()()()()()()()()()()

                                              &SEWARD

                                   only a single process is used
                       available to each process: 32 GB of memory, 1 thread?
                                             pid: 2475
()()()()()()()()()()()()()()()()()()()()()()()()()()()()()()()()()()()()()()()()()()()()()()()()()()

               SEWARD will generate:
                  Multipole Moment integrals up to order  2
                  Kinetic Energy integrals
                  Nuclear Attraction integrals (point charge)
                  One-Electron Hamiltonian integrals
                  Velocity integrals
                  Relativistic Douglas-Kroll integrals
                  Orbital angular momentum around (-9.9173  4.2859  9.2578 )
                  Velocity quadrupole around (-9.3169  4.7160  9.5012 )
                  Atomic mean-field integrals
                  Cholesky decomposed two-electron repulsion integrals
                   - CD Threshold:   0.10E-07

                   Integrals are discarded if absolute value <: 0.10E-39
                   Integral cutoff threshold is set to       <: 0.10E-39

            Nuclear Potential Energy           6782.45529353 au


      Basis set specifications :
      Symmetry species         a  
      Basis functions          567

      Cholesky vectors        7745


 Sorry, Molden does not know how to handle
 functions with angular momentum larger than g
--- Stop Module: seward at Thu Mar 27 12:18:50 2025 /rc=_RC_ALL_IS_WELL_ ---
*** files: artion1new.GssOrb xmldump
    saved to directory /media/korden/5fb66ce1-8053-4a4f-9303-c4fa91c2cea8/home/korden/calc/orca/Artem/binucliar_Dyacac_artion_1
--- Module seward spent 1 hour 57 minutes 18 seconds ---

*** symbolic link created: INPORB -> artion1new.GssOrb
--- Start Module: rasscf at Thu Mar 27 12:18:50 2025 ---

()()()()()()()()()()()()()()()()()()()()()()()()()()()()()()()()()()()()()()()()()()()()()()()()()()

                                              &RASSCF

                                   only a single process is used
                       available to each process: 32 GB of memory, 1 thread?
                                             pid: 2646
()()()()()()()()()()()()()()()()()()()()()()()()()()()()()()()()()()()()()()()()()()()()()()()()()()


      Header of the ONEINT file:
      --------------------------
      
      Integrals generated by Gateway/Seward, Thu Mar 27 10:21:31 2025


      OrdInt status: non-squared


      Cartesian coordinates in Angstrom:
      -----------------------------------------------------
      No.  Label        X            Y            Z        
      -----------------------------------------------------
       1   N1        -3.43500000   5.14100000   8.27700000
       2   N2        -4.93900000   4.00400000   6.83200000
       3   N3        -2.84600000   3.07700000   5.40400000
       4   N4        -1.34200000   4.21400000   6.84800000
       5   C1        -3.71100000   4.36500000   7.23700000
       6   C2        -4.47600000   5.59400000   8.98100000
       7   C3        -5.76800000   5.29400000   8.65000000
       8   C4        -5.95800000   4.47400000   7.56000000
       9   C5        -2.57100000   3.85300000   6.44400000
      10   C6        -1.80500000   2.62400000   4.69900000
      11   C7        -0.51300000   2.92400000   5.03000000
      12   C8        -0.32400000   3.74400000   6.12100000
      13   C9        -3.80900000   0.23000000   8.83400000
      14   C10       -4.82600000   0.66200000   7.80100000
      15   C11       -6.18300000   0.56000000   8.09500000
      16   C12       -7.21100000   1.03500000   7.29300000
      17   C13       -8.64700000   0.81100000   7.72000000
      18   C14       -4.70700000   4.07200000   2.13700000
      19   C15       -5.94000000   4.69900000   2.15500000
      20   C16       -6.85400000   4.65700000   3.21200000
      21   C17       -8.17100000   5.37100000   3.04700000
      22   C18       -6.50900000   0.59400000   2.31700000
      23   C19       -5.30300000  -0.02000000   1.98000000
      24   C20       -4.15300000   0.00000000   2.75300000
      25   C21       -2.91600000  -0.76000000   2.29300000
      26   C22       -3.54600000   1.31700000   9.86200000
      27   C23       -2.54900000   3.45100000   0.95900000
      28   C24       -3.92900000   4.03200000   0.80900000
      29   C25       -8.70100000   1.35000000   1.45000000
      30   C26       -7.71500000   0.25500000   1.47700000
      31   H1        -4.31300000   6.14300000   9.73900000
      32   H2        -6.50100000   5.63500000   9.15000000
      33   H3        -6.84400000   4.23500000   7.31500000
      34   H4        -1.96900000   2.07500000   3.94200000
      35   H5         0.21900000   2.58300000   4.53000000
      36   H6         0.56300000   3.98300000   6.36600000
      37   H7        -4.13700000  -0.58200000   9.29500000
      38   H8        -2.96000000   0.00000000   8.38000000
      39   H9        -6.42400000   0.13200000   8.90800000
      40   H10       -8.96900000   1.59800000   8.20700000
      41   H11       -9.20500000   0.66600000   6.92700000
      42   H12       -8.69500000   0.02400000   8.30200000
      43   H13       -6.18500000   5.19700000   1.38400000
      44   H14       -8.48600000   5.68200000   3.92100000
      45   H15       -8.05400000   6.14000000   2.45000000
      46   H16       -8.83000000   4.75700000   2.66200000
      47   H17       -5.26800000  -0.48900000   1.15400000
      48   H18       -2.75000000  -1.51100000   2.90000000
      49   H19       -3.05800000  -1.09800000   1.38500000
      50   H20       -2.14200000  -0.15800000   2.30000000
      51   H21       -4.35300000   1.45800000  10.40200000
      52   H22       -2.80800000   1.04400000  10.44600000
      53   H23       -3.31000000   2.15000000   9.40500000
      54   H24       -2.04300000   3.97200000   1.62000000
      55   H25       -2.61000000   2.51900000   1.26000000
      56   H26       -2.08200000   3.48300000   0.09700000
      57   H27       -3.86200000   4.94900000   0.44700000
      58   H28       -4.44100000   3.48700000   0.15600000
      59   H29       -8.81800000   1.71000000   2.35000000
      60   H30       -8.38000000   2.06500000   0.85200000
      61   H31       -9.55800000   1.01400000   1.11300000
      62   H32       -8.14300000  -0.56300000   1.83200000
      63   H33       -7.41600000   0.05700000   0.54700000
      64   DY1       -5.24800000   2.26800000   4.89900000
      65   O1        -4.36600000   1.14000000   6.71700000
      66   O2        -7.03500000   1.69900000   6.21800000
      67   O3        -4.28600000   3.29800000   3.04600000
      68   O4        -6.65800000   4.03200000   4.30700000
      69   O5        -6.68100000   1.29400000   3.36000000
      70   O6        -4.03600000   0.59600000   3.86800000
      -----------------------------------------------------
      Nuclear repulsion energy = 6782.45529353

++    Wave function specifications:
      -----------------------------

      Number of closed shell electrons         322
      Number of electrons in active shells       9
      Max number of holes in RAS1 space          0
      Max nr of electrons in RAS3 space          0
      Number of inactive orbitals              161
      Number of active orbitals                  7
      Number of secondary orbitals             399
      Spin quantum number                      2.5
      State symmetry                             1
--

++    Orbital specifications:
      -----------------------

      Symmetry species                           1
                                                 a
      Frozen orbitals                            0
      Inactive orbitals                        161
      Active orbitals                            7
      RAS1 orbitals                              0
      RAS2 orbitals                              7
      RAS3 orbitals                              0
      Secondary orbitals                       399
      Deleted orbitals                           0
      Number of basis functions                567
--

++    CI expansion specifications:
      ----------------------------

      Number of CSFs                            21
      Number of determinants                    21
      Number of root(s) required                21
      Root chosen for geometry opt.             21
      CI roots used                              1     2     3     4     5     6     7     8     9    10
                                                11    12    13    14    15    16    17    18    19    20
                                                21
      weights                                0.048 0.048 0.048 0.048 0.048 0.048 0.048 0.048 0.048 0.048
                                             0.048 0.048 0.048 0.048 0.048 0.048 0.048 0.048 0.048 0.048
                                             0.048
      highest root included in the CI           21
      max. size of the explicit Hamiltonian     21
--

++    Optimization specifications:
      ----------------------------

      RASSCF algorithm: LK Cholesky
      Maximum number of macro iterations       200
      Maximum number of SX iterations          100
      Threshold for RASSCF energy            0.100E-07
      Threshold for max MO rotation          0.100E+00
      Threshold for max BLB element          0.100E-03
      Level shift parameter                  0.500E+00
      Make Quasi-Newton update
--

      Orbitals from runfile: guessorb orbitals
      The MO-coefficients are taken from guessorb on runfile

      Total molecular charge    0.00

      ************************************************************************************************************************
      *                                                                                                                      *
      *                                            Wave function control section                                             *
      *                                                                                                                      *
      ************************************************************************************************************************


                                         RASSCF iterations: Energy and convergence statistics
                                         ----------------------------------------------------

      Iter CI   SX   CI       RASSCF       Energy    max ROT     max BLB   max BLB  Level Ln srch  Step   QN   Walltime
          iter iter root      energy       change     param      element    value   shift minimum  type update hh:mm:ss
 Nr of preliminary CI iterations:   1
      Total energies have been shifted. Add               -13000.00 au
        1   1   12    0  -801.51222185    0.00E+00  -0.14E+00* 156 560 1 -0.17E+01*  4.41   0.00    SX    NO    0:15:00
        2   1   13    0  -807.56596097   -0.61E+01* -0.16E+00*  27 566 1  0.60E+00*  2.68   0.00    SX    NO    0:06:45
        3   1   12    0  -811.03206965   -0.35E+01* -0.22E+00*  59 552 1  0.42E+00*  1.68   0.00    SX    NO    0:07:13
        4   1   12    0  -813.26758432   -0.22E+01*  0.22E+00* 160 167 1  0.27E+00*  0.90   0.00    SX    NO    0:07:35
        5   1   13    0  -814.69872807   -0.14E+01*  0.14E+00* 156 164 1 -0.19E+00*  0.51   2.12    QN   YES    0:07:49
        6   1   13    0  -815.34586385   -0.65E+00*  0.14E+00* 156 164 1 -0.16E+00*  0.45   2.50    QN   YES    0:07:57
        7   1   13    0  -815.87042530   -0.52E+00*  0.14E+00* 156 164 1 -0.13E+00*  0.44   2.50    QN   YES    0:07:58
        8   1   14    0  -816.27544456   -0.41E+00*  0.12E+00* 156 164 1 -0.89E-01*  0.42   2.50    QN   YES    0:08:01
        9   1   14    0  -816.54637674   -0.27E+00*  0.10E+00*  59 552 1 -0.66E-01*  0.38   2.05    QN   YES    0:08:06
       10   1   14    0  -816.71205334   -0.17E+00* -0.12E+00* 158 163 1  0.66E-01*  0.36   2.30    QN   YES    0:08:09
       11   1   14    0  -816.87173141   -0.16E+00* -0.13E+00* 158 163 1  0.71E-01*  0.38   2.01    QN   YES    0:08:04
       12   1   14    0  -816.97362227   -0.10E+00* -0.48E-01  155 163 1 -0.67E-01*  0.32   1.09    QN   YES    0:08:01
       13   1   14    0  -817.01292441   -0.39E-01*  0.52E-01  155 163 1 -0.40E-01*  0.34   1.71    QN   YES    0:08:01
       14   1   13    0  -817.03731093   -0.24E-01* -0.15E-01   60 248 1  0.12E-01*  0.34   1.24    QN   YES    0:08:10
       15   1   12    0  -817.04135199   -0.40E-02*  0.30E-02   59 552 1  0.17E-01*  0.37   1.15    QN   YES    0:08:34
       16   1   11    0  -817.04190154   -0.55E-03* -0.25E-02   59 552 1 -0.64E-02*  0.36   0.91    QN   YES    0:08:27
       17   1   11    0  -817.04200861   -0.11E-03*  0.11E-02   60 248 1 -0.71E-03*  0.37   0.99    QN   YES    0:08:46
       18   1   10    0  -817.04202868   -0.20E-04* -0.35E-03   27 566 1  0.46E-03*  0.36   1.14    QN   YES    0:09:24
       19   1    9    0  -817.04203411   -0.54E-05* -0.26E-03  161 172 1  0.19E-03*  0.36   1.32    QN   YES    0:09:30
       20   1    9    0  -817.04203558   -0.15E-05* -0.15E-03   27 566 1 -0.14E-03*  0.36   1.28    QN   YES    0:09:42
       21   1    8    0  -817.04203604   -0.45E-06*  0.70E-04  156 173 1 -0.49E-04   0.36   1.25    QN   YES    0:09:46
       22   1    7    0  -817.04203618   -0.14E-06*  0.23E-04  161 179 1  0.19E-04   0.36   1.22    QN   YES    0:09:58
       23   1    7    0  -817.04203620   -0.27E-07* -0.11E-04  161 179 1  0.12E-04   0.36   1.33    QN   YES    0:10:06
       24   1    6    0  -817.04203621   -0.74E-08  -0.65E-05  154 174 1  0.55E-05   0.36   1.14    QN   YES    0:10:12
      Convergence after 24 iterations
       25   1    6    0  -817.04203621   -0.71E-09  -0.65E-05  154 174 1  0.24E-05   0.36   1.14    QN   YES    0:10:16

      ************************************************************************************************************************
                                                      Wave function printout:
                       occupation of active orbitals, and spin coupling of open shells (u,d: Spin up or down)
      ************************************************************************************************************************

      Note: transformation to natural orbitals
      has been made, which may change the order of the CSFs.

      printout of CI-coefficients larger than  0.05 for root  1
      energy=  -13817.077434
      conf/sym  1111111     Coeff  Weight
             1  22uuuuu  -0.15312 0.02345
             2  2u2uuuu  -0.32794 0.10755
             4  2uu2uuu  -0.07652 0.00586
             5  2uuu2uu  -0.23566 0.05553
             6  2uuuu2u   0.12156 0.01478
             7  2uuuuu2   0.27748 0.07700
             8  u2u2uuu  -0.18196 0.03311
             9  u2uu2uu  -0.12856 0.01653
            10  u2uuu2u   0.25649 0.06579
            11  u2uuuu2  -0.49139 0.24146
            12  uu22uuu   0.33935 0.11516
            13  uu2u2uu   0.28765 0.08274
            16  uuu22uu   0.12211 0.01491
            17  uuu2u2u   0.20979 0.04401
            18  uuuu22u   0.30458 0.09277
            20  uuuu2u2  -0.06575 0.00432

      printout of CI-coefficients larger than  0.05 for root  2
      energy=  -13817.077412
      conf/sym  1111111     Coeff  Weight
             1  22uuuuu   0.42624 0.18168
             2  2u2uuuu  -0.25253 0.06377
             3  u22uuuu   0.33031 0.10911
             4  2uu2uuu  -0.09247 0.00855
             5  2uuu2uu   0.08801 0.00775
             6  2uuuu2u   0.22424 0.05029
             7  2uuuuu2  -0.10163 0.01033
             8  u2u2uuu  -0.18967 0.03597
             9  u2uu2uu  -0.19440 0.03779
            10  u2uuu2u  -0.17161 0.02945
            11  u2uuuu2  -0.06406 0.00410
            12  uu22uuu  -0.16171 0.02615
            13  uu2u2uu  -0.17025 0.02899
            14  uu2uu2u   0.17999 0.03240
            15  uu2uuu2  -0.25039 0.06269
            16  uuu22uu   0.15516 0.02407
            19  uuu2uu2  -0.32456 0.10534
            20  uuuu2u2  -0.34947 0.12213
            21  uuuuu22   0.23661 0.05598

      printout of CI-coefficients larger than  0.05 for root  3
      energy=  -13817.076650
      conf/sym  1111111     Coeff  Weight
             1  22uuuuu  -0.19091 0.03645
             3  u22uuuu   0.36428 0.13270
             4  2uu2uuu  -0.42271 0.17868
             5  2uuu2uu  -0.29367 0.08624
             6  2uuuu2u  -0.10542 0.01111
             7  2uuuuu2  -0.09796 0.00960
             8  u2u2uuu  -0.39144 0.15323
            10  u2uuu2u   0.22896 0.05242
            11  u2uuuu2   0.17939 0.03218
            12  uu22uuu   0.15005 0.02252
            13  uu2u2uu  -0.17339 0.03006
            14  uu2uu2u  -0.06845 0.00468
            15  uu2uuu2  -0.13270 0.01761
            16  uuu22uu   0.06989 0.00488
            17  uuu2u2u  -0.24254 0.05882
            18  uuuu22u  -0.31970 0.10221
            19  uuu2uu2   0.10294 0.01060
            20  uuuu2u2   0.20214 0.04086
            21  uuuuu22   0.12217 0.01493

      printout of CI-coefficients larger than  0.05 for root  4
      energy=  -13817.076472
      conf/sym  1111111     Coeff  Weight
             1  22uuuuu  -0.32714 0.10702
             2  2u2uuuu  -0.09956 0.00991
             3  u22uuuu   0.07973 0.00636
             4  2uu2uuu   0.19185 0.03681
             5  2uuu2uu  -0.17777 0.03160
             6  2uuuu2u   0.15860 0.02515
             7  2uuuuu2   0.10630 0.01130
             8  u2u2uuu  -0.05652 0.00319
             9  u2uu2uu   0.13693 0.01875
            10  u2uuu2u  -0.38974 0.15190
            11  u2uuuu2   0.26606 0.07079
            12  uu22uuu   0.40171 0.16137
            13  uu2u2uu   0.09343 0.00873
            14  uu2uu2u   0.14237 0.02027
            16  uuu22uu  -0.35248 0.12425
            17  uuu2u2u  -0.22483 0.05055
            19  uuu2uu2  -0.35785 0.12805
            20  uuuu2u2  -0.18103 0.03277

      printout of CI-coefficients larger than  0.05 for root  5
      energy=  -13817.076380
      conf/sym  1111111     Coeff  Weight
             1  22uuuuu  -0.32322 0.10447
             2  2u2uuuu  -0.11258 0.01267
             3  u22uuuu  -0.10326 0.01066
             4  2uu2uuu   0.29116 0.08477
             5  2uuu2uu   0.24106 0.05811
             6  2uuuu2u   0.27594 0.07614
             7  2uuuuu2  -0.34706 0.12045
             8  u2u2uuu   0.06130 0.00376
            10  u2uuu2u   0.13148 0.01729
            11  u2uuuu2  -0.06313 0.00399
            12  uu22uuu   0.09280 0.00861
            13  uu2u2uu   0.10644 0.01133
            15  uu2uuu2  -0.36866 0.13591
            16  uuu22uu   0.26702 0.07130
            17  uuu2u2u  -0.31017 0.09621
            18  uuuu22u  -0.15699 0.02465
            19  uuu2uu2   0.30081 0.09049
            20  uuuu2u2  -0.25834 0.06674

      printout of CI-coefficients larger than  0.05 for root  6
      energy=  -13817.075954
      conf/sym  1111111     Coeff  Weight
             2  2u2uuuu  -0.35625 0.12691
             3  u22uuuu   0.14627 0.02140
             4  2uu2uuu   0.11408 0.01301
             5  2uuu2uu  -0.05644 0.00318
             6  2uuuu2u  -0.20529 0.04215
             7  2uuuuu2   0.24029 0.05774
             8  u2u2uuu  -0.06681 0.00446
             9  u2uu2uu   0.29933 0.08960
            10  u2uuu2u   0.22539 0.05080
            11  u2uuuu2   0.25559 0.06532
            12  uu22uuu  -0.34876 0.12163
            13  uu2u2uu   0.06275 0.00394
            14  uu2uu2u   0.22865 0.05228
            15  uu2uuu2   0.23309 0.05433
            16  uuu22uu   0.19439 0.03779
            17  uuu2u2u  -0.27871 0.07768
            18  uuuu22u   0.14338 0.02056
            19  uuu2uu2   0.11370 0.01293
            20  uuuu2u2  -0.26495 0.07020
            21  uuuuu22  -0.27219 0.07409

      printout of CI-coefficients larger than  0.05 for root  7
      energy=  -13817.075641
      conf/sym  1111111     Coeff  Weight
             1  22uuuuu   0.30395 0.09239
             4  2uu2uuu   0.24210 0.05861
             5  2uuu2uu  -0.27109 0.07349
             6  2uuuu2u  -0.19049 0.03629
             7  2uuuuu2  -0.42531 0.18089
             9  u2uu2uu   0.14004 0.01961
            10  u2uuu2u  -0.06637 0.00441
            12  uu22uuu   0.12990 0.01687
            13  uu2u2uu   0.27525 0.07576
            14  uu2uu2u  -0.38528 0.14844
            15  uu2uuu2   0.28366 0.08046
            16  uuu22uu   0.24675 0.06089
            17  uuu2u2u  -0.21458 0.04604
            18  uuuu22u   0.11873 0.01410
            19  uuu2uu2  -0.12072 0.01457
            20  uuuu2u2   0.05374 0.00289
            21  uuuuu22   0.26783 0.07173

      printout of CI-coefficients larger than  0.05 for root  8
      energy=  -13817.075434
      conf/sym  1111111     Coeff  Weight
             2  2u2uuuu  -0.11473 0.01316
             3  u22uuuu   0.10341 0.01069
             4  2uu2uuu  -0.14910 0.02223
             5  2uuu2uu   0.26112 0.06818
             6  2uuuu2u   0.28405 0.08068
             7  2uuuuu2   0.05532 0.00306
             8  u2u2uuu  -0.22771 0.05185
             9  u2uu2uu   0.50694 0.25698
            10  u2uuu2u  -0.26900 0.07236
            11  u2uuuu2  -0.33052 0.10924
            12  uu22uuu  -0.14063 0.01978
            14  uu2uu2u  -0.30310 0.09187
            15  uu2uuu2   0.17936 0.03217
            16  uuu22uu  -0.26439 0.06990
            17  uuu2u2u  -0.09318 0.00868
            18  uuuu22u  -0.09090 0.00826
            19  uuu2uu2   0.27160 0.07377
            21  uuuuu22   0.06773 0.00459

      printout of CI-coefficients larger than  0.05 for root  9
      energy=  -13817.075222
      conf/sym  1111111     Coeff  Weight
             1  22uuuuu   0.18292 0.03346
             2  2u2uuuu   0.24168 0.05841
             3  u22uuuu  -0.29576 0.08747
             4  2uu2uuu   0.18078 0.03268
             5  2uuu2uu  -0.37599 0.14137
             6  2uuuu2u   0.42701 0.18234
             7  2uuuuu2   0.20335 0.04135
             8  u2u2uuu  -0.10511 0.01105
             9  u2uu2uu   0.24927 0.06214
            10  u2uuu2u   0.37368 0.13963
            12  uu22uuu  -0.18941 0.03588
            14  uu2uu2u  -0.09812 0.00963
            15  uu2uuu2  -0.16276 0.02649
            17  uuu2u2u  -0.07918 0.00627
            18  uuuu22u  -0.20767 0.04313
            19  uuu2uu2  -0.29060 0.08445

      printout of CI-coefficients larger than  0.05 for root 10
      energy=  -13817.074617
      conf/sym  1111111     Coeff  Weight
             1  22uuuuu   0.14426 0.02081
             3  u22uuuu   0.17521 0.03070
             4  2uu2uuu   0.16764 0.02810
             5  2uuu2uu  -0.18510 0.03426
             8  u2u2uuu   0.11102 0.01233
             9  u2uu2uu  -0.12762 0.01629
            10  u2uuu2u   0.13654 0.01864
            11  u2uuuu2   0.25804 0.06659
            12  uu22uuu   0.08705 0.00758
            13  uu2u2uu  -0.34264 0.11740
            14  uu2uu2u  -0.45702 0.20887
            15  uu2uuu2  -0.17684 0.03127
            16  uuu22uu  -0.32871 0.10805
            17  uuu2u2u   0.08773 0.00770
            18  uuuu22u   0.33307 0.11094
            19  uuu2uu2   0.33998 0.11558
            20  uuuu2u2  -0.23557 0.05549
            21  uuuuu22  -0.06304 0.00397

      printout of CI-coefficients larger than  0.05 for root 11
      energy=  -13817.074592
      conf/sym  1111111     Coeff  Weight
             2  2u2uuuu   0.18072 0.03266
             4  2uu2uuu   0.08610 0.00741
             5  2uuu2uu   0.14522 0.02109
             6  2uuuu2u   0.19799 0.03920
             7  2uuuuu2   0.06249 0.00390
             8  u2u2uuu  -0.05506 0.00303
             9  u2uu2uu   0.27011 0.07296
            10  u2uuu2u   0.13069 0.01708
            11  u2uuuu2   0.20193 0.04078
            12  uu22uuu   0.31533 0.09943
            13  uu2u2uu  -0.36411 0.13258
            14  uu2uu2u   0.24189 0.05851
            15  uu2uuu2   0.30766 0.09465
            16  uuu22uu   0.31142 0.09698
            17  uuu2u2u   0.22570 0.05094
            18  uuuu22u   0.15492 0.02400
            19  uuu2uu2   0.14661 0.02149
            20  uuuu2u2  -0.05112 0.00261
            21  uuuuu22   0.42100 0.17724

      printout of CI-coefficients larger than  0.05 for root 12
      energy=  -13817.042833
      conf/sym  1111111     Coeff  Weight
             1  22uuuuu  -0.16252 0.02641
             2  2u2uuuu  -0.37241 0.13869
             3  u22uuuu  -0.05365 0.00288
             4  2uu2uuu   0.08992 0.00809
             5  2uuu2uu  -0.33876 0.11476
             6  2uuuu2u  -0.18903 0.03573
             7  2uuuuu2   0.06579 0.00433
             8  u2u2uuu   0.40784 0.16633
             9  u2uu2uu   0.22679 0.05143
            10  u2uuu2u  -0.13060 0.01706
            11  u2uuuu2  -0.15030 0.02259
            12  uu22uuu  -0.20491 0.04199
            13  uu2u2uu  -0.17486 0.03058
            14  uu2uu2u   0.11140 0.01241
            15  uu2uuu2  -0.25257 0.06379
            17  uuu2u2u   0.13449 0.01809
            18  uuuu22u  -0.13682 0.01872
            19  uuu2uu2   0.09422 0.00888
            20  uuuu2u2   0.12727 0.01620
            21  uuuuu22   0.44709 0.19989

      printout of CI-coefficients larger than  0.05 for root 13
      energy=  -13817.042432
      conf/sym  1111111     Coeff  Weight
             1  22uuuuu   0.13174 0.01736
             2  2u2uuuu   0.06861 0.00471
             3  u22uuuu   0.44520 0.19820
             4  2uu2uuu   0.49793 0.24793
             7  2uuuuu2   0.26499 0.07022
             8  u2u2uuu   0.07963 0.00634
             9  u2uu2uu  -0.07676 0.00589
            10  u2uuu2u  -0.12156 0.01478
            11  u2uuuu2  -0.26013 0.06767
            12  uu22uuu   0.15584 0.02429
            13  uu2u2uu  -0.23974 0.05747
            16  uuu22uu   0.19553 0.03823
            17  uuu2u2u  -0.14836 0.02201
            18  uuuu22u  -0.17976 0.03231
            20  uuuu2u2   0.36364 0.13224
            21  uuuuu22  -0.23659 0.05597

      printout of CI-coefficients larger than  0.05 for root 14
      energy=  -13817.041986
      conf/sym  1111111     Coeff  Weight
             1  22uuuuu  -0.10250 0.01051
             2  2u2uuuu   0.29898 0.08939
             3  u22uuuu  -0.12409 0.01540
             4  2uu2uuu  -0.14855 0.02207
             5  2uuu2uu  -0.31049 0.09640
             6  2uuuu2u   0.10303 0.01062
             7  2uuuuu2   0.31109 0.09678
             8  u2u2uuu  -0.05469 0.00299
             9  u2uu2uu  -0.20769 0.04313
            10  u2uuu2u  -0.51600 0.26626
            12  uu22uuu  -0.19305 0.03727
            14  uu2uu2u  -0.10767 0.01159
            16  uuu22uu   0.39598 0.15680
            17  uuu2u2u  -0.16262 0.02645
            18  uuuu22u   0.12392 0.01536
            19  uuu2uu2   0.26766 0.07164
            20  uuuu2u2  -0.14013 0.01964
            21  uuuuu22   0.05535 0.00306

      printout of CI-coefficients larger than  0.05 for root 15
      energy=  -13817.041901
      conf/sym  1111111     Coeff  Weight
             1  22uuuuu  -0.24846 0.06173
             2  2u2uuuu   0.29163 0.08505
             4  2uu2uuu   0.16112 0.02596
             6  2uuuu2u  -0.34576 0.11955
             7  2uuuuu2  -0.17949 0.03222
             8  u2u2uuu  -0.35408 0.12537
             9  u2uu2uu   0.29298 0.08583
            10  u2uuu2u  -0.06140 0.00377
            11  u2uuuu2  -0.25046 0.06273
            12  uu22uuu  -0.12686 0.01609
            13  uu2u2uu  -0.20806 0.04329
            15  uu2uuu2  -0.33565 0.11266
            17  uuu2u2u   0.06096 0.00372
            18  uuuu22u   0.42348 0.17934
            19  uuu2uu2  -0.17141 0.02938
            21  uuuuu22  -0.10108 0.01022

      printout of CI-coefficients larger than  0.05 for root 16
      energy=  -13817.041769
      conf/sym  1111111     Coeff  Weight
             1  22uuuuu   0.05193 0.00270
             3  u22uuuu   0.23447 0.05497
             4  2uu2uuu   0.15286 0.02337
             5  2uuu2uu  -0.19332 0.03737
             6  2uuuu2u   0.31627 0.10003
             7  2uuuuu2  -0.24148 0.05831
             8  u2u2uuu  -0.15851 0.02512
             9  u2uu2uu   0.09216 0.00849
            10  u2uuu2u  -0.09356 0.00875
            11  u2uuuu2   0.25237 0.06369
            12  uu22uuu  -0.17674 0.03124
            13  uu2u2uu   0.39599 0.15681
            14  uu2uu2u   0.27390 0.07502
            15  uu2uuu2  -0.12686 0.01609
            16  uuu22uu  -0.06185 0.00383
            17  uuu2u2u   0.36662 0.13441
            18  uuuu22u   0.12046 0.01451
            19  uuu2uu2   0.27620 0.07629
            20  uuuu2u2   0.32030 0.10259
            21  uuuuu22  -0.07412 0.00549

      printout of CI-coefficients larger than  0.05 for root 17
      energy=  -13817.041619
      conf/sym  1111111     Coeff  Weight
             1  22uuuuu  -0.33909 0.11498
             3  u22uuuu   0.08919 0.00796
             4  2uu2uuu   0.09868 0.00974
             6  2uuuu2u   0.25148 0.06324
             7  2uuuuu2  -0.13473 0.01815
             9  u2uu2uu  -0.36351 0.13214
            10  u2uuu2u   0.15770 0.02487
            11  u2uuuu2  -0.10859 0.01179
            12  uu22uuu  -0.40633 0.16511
            13  uu2u2uu  -0.15059 0.02268
            15  uu2uuu2   0.35648 0.12708
            16  uuu22uu  -0.19845 0.03938
            17  uuu2u2u  -0.26324 0.06929
            18  uuuu22u   0.27293 0.07449
            19  uuu2uu2  -0.11232 0.01262
            20  uuuu2u2   0.20901 0.04369
            21  uuuuu22   0.24820 0.06160

      printout of CI-coefficients larger than  0.05 for root 18
      energy=  -13817.041503
      conf/sym  1111111     Coeff  Weight
             1  22uuuuu   0.29182 0.08516
             2  2u2uuuu   0.11283 0.01273
             3  u22uuuu  -0.19658 0.03865
             5  2uuu2uu  -0.29202 0.08528
             6  2uuuu2u  -0.10397 0.01081
             7  2uuuuu2  -0.21772 0.04740
             8  u2u2uuu  -0.11038 0.01218
             9  u2uu2uu  -0.09235 0.00853
            11  u2uuuu2  -0.30423 0.09256
            12  uu22uuu   0.14542 0.02115
            13  uu2u2uu  -0.12880 0.01659
            14  uu2uu2u   0.49597 0.24598
            15  uu2uuu2   0.13015 0.01694
            16  uuu22uu  -0.30331 0.09199
            17  uuu2u2u  -0.23444 0.05496
            19  uuu2uu2   0.35010 0.12257
            20  uuuu2u2  -0.17684 0.03127

      printout of CI-coefficients larger than  0.05 for root 19
      energy=  -13816.918927
      conf/sym  1111111     Coeff  Weight
             1  22uuuuu   0.12016 0.01444
             2  2u2uuuu  -0.06169 0.00381
             3  u22uuuu  -0.19139 0.03663
             4  2uu2uuu   0.34036 0.11584
             5  2uuu2uu   0.24105 0.05811
             6  2uuuu2u  -0.26636 0.07095
             7  2uuuuu2   0.34199 0.11696
             8  u2u2uuu  -0.46689 0.21799
             9  u2uu2uu  -0.20816 0.04333
            11  u2uuuu2   0.14468 0.02093
            13  uu2u2uu   0.19104 0.03649
            15  uu2uuu2  -0.14462 0.02091
            16  uuu22uu  -0.17668 0.03121
            17  uuu2u2u  -0.06149 0.00378
            18  uuuu22u  -0.08900 0.00792
            19  uuu2uu2   0.13349 0.01782
            20  uuuu2u2   0.11014 0.01213
            21  uuuuu22   0.40933 0.16755

      printout of CI-coefficients larger than  0.05 for root 20
      energy=  -13816.917502
      conf/sym  1111111     Coeff  Weight
             1  22uuuuu  -0.08688 0.00755
             2  2u2uuuu  -0.42477 0.18043
             3  u22uuuu  -0.38580 0.14884
             4  2uu2uuu   0.14242 0.02028
             5  2uuu2uu  -0.12004 0.01441
             6  2uuuu2u   0.05742 0.00330
             7  2uuuuu2  -0.19036 0.03624
             8  u2u2uuu  -0.35604 0.12676
             9  u2uu2uu  -0.13845 0.01917
            10  u2uuu2u  -0.20387 0.04156
            11  u2uuuu2   0.08699 0.00757
            13  uu2u2uu  -0.36167 0.13081
            14  uu2uu2u  -0.12558 0.01577
            15  uu2uuu2   0.18416 0.03392
            16  uuu22uu   0.13729 0.01885
            17  uuu2u2u   0.25596 0.06552
            18  uuuu22u  -0.17160 0.02945
            20  uuuu2u2   0.10329 0.01067
            21  uuuuu22  -0.29465 0.08682

      printout of CI-coefficients larger than  0.05 for root 21
      energy=  -13816.916481
      conf/sym  1111111     Coeff  Weight
             1  22uuuuu   0.23694 0.05614
             2  2u2uuuu  -0.23595 0.05567
             3  u22uuuu  -0.28727 0.08252
             4  2uu2uuu  -0.22260 0.04955
             5  2uuu2uu   0.11172 0.01248
             6  2uuuu2u   0.15475 0.02395
             8  u2u2uuu   0.06970 0.00486
             9  u2uu2uu   0.09647 0.00931
            11  u2uuuu2   0.11136 0.01240
            12  uu22uuu   0.15965 0.02549
            13  uu2u2uu  -0.10031 0.01006
            14  uu2uu2u   0.08208 0.00674
            15  uu2uuu2  -0.26698 0.07128
            16  uuu22uu   0.05672 0.00322
            17  uuu2u2u  -0.39210 0.15374
            18  uuuu22u   0.42683 0.18219
            20  uuuu2u2   0.48195 0.23227
            21  uuuuu22  -0.06482 0.00420

      Natural orbitals and occupation numbers for root  1
      sym 1:   1.007432   1.421382   1.571187   1.571187   1.007432   1.000000   1.421382

      Natural orbitals and occupation numbers for root  2
      sym 1:   1.000000   1.490327   1.490327   1.509454   1.000219   1.000219   1.509454

      Natural orbitals and occupation numbers for root  3
      sym 1:   1.032590   1.630202   1.032590   1.630202   1.337209   1.337209   1.000000

      Natural orbitals and occupation numbers for root  4
      sym 1:   1.000000   1.658908   1.262067   1.658908   1.079025   1.262067   1.079025

      Natural orbitals and occupation numbers for root  5
      sym 1:   1.655771   1.063588   1.063588   1.655771   1.280641   1.000000   1.280641

      Natural orbitals and occupation numbers for root  6
      sym 1:   1.077946   1.000000   1.642895   1.642895   1.279159   1.077946   1.279159

      Natural orbitals and occupation numbers for root  7
      sym 1:   1.539940   1.002962   1.539940   1.000000   1.002962   1.457098   1.457098

      Natural orbitals and occupation numbers for root  8
      sym 1:   1.000000   1.633352   1.075433   1.291215   1.633352   1.291215   1.075433

      Natural orbitals and occupation numbers for root  9
      sym 1:   1.590317   1.590317   1.362295   1.047388   1.000000   1.362295   1.047388

      Natural orbitals and occupation numbers for root 10
      sym 1:   1.000000   1.021929   1.021929   1.409392   1.568678   1.568678   1.409392

      Natural orbitals and occupation numbers for root 11
      sym 1:   1.000000   1.033906   1.581187   1.384906   1.384906   1.033906   1.581187

      Natural orbitals and occupation numbers for root 12
      sym 1:   1.325652   1.354759   1.354759   1.000000   1.319589   1.319589   1.325652

      Natural orbitals and occupation numbers for root 13
      sym 1:   1.365118   1.365118   1.306479   1.328403   1.328403   1.000000   1.306479

      Natural orbitals and occupation numbers for root 14
      sym 1:   1.310382   1.354920   1.000000   1.310382   1.334698   1.354920   1.334698

      Natural orbitals and occupation numbers for root 15
      sym 1:   1.325639   1.357504   1.325639   1.000000   1.316856   1.316856   1.357504

      Natural orbitals and occupation numbers for root 16
      sym 1:   1.310866   1.000000   1.310866   1.353435   1.335700   1.353435   1.335700

      Natural orbitals and occupation numbers for root 17
      sym 1:   1.000000   1.305430   1.356961   1.337609   1.356961   1.305430   1.337609

      Natural orbitals and occupation numbers for root 18
      sym 1:   1.304742   1.000000   1.362199   1.333060   1.362199   1.333060   1.304742

      Natural orbitals and occupation numbers for root 19
      sym 1:   1.635320   1.000000   1.074417   1.635320   1.074417   1.290263   1.290263

      Natural orbitals and occupation numbers for root 20
      sym 1:   1.071253   1.641094   1.641094   1.287653   1.000000   1.287653   1.071253

      Natural orbitals and occupation numbers for root 21
      sym 1:   1.278636   1.000000   1.069043   1.069043   1.652321   1.278636   1.652321

      ************************************************************************************************************************
      *                                                                                                                      *
      *                                                    Final results                                                     *
      *                                                                                                                      *
      ************************************************************************************************************************


++    Wave function specifications:
      -----------------------------

      Number of closed shell electrons         322
      Number of electrons in active shells       9
      Max number of holes in RAS1 space          0
      Max nr of electrons in RAS3 space          0
      Number of inactive orbitals              161
      Number of active orbitals                  7
      Number of secondary orbitals             399
      Spin quantum number                      2.5
      State symmetry                             1
--

++    Orbital specifications:
      -----------------------

      Symmetry species                           1
                                                 a
      Frozen orbitals                            0
      Inactive orbitals                        161
      Active orbitals                            7
      RAS1 orbitals                              0
      RAS2 orbitals                              7
      RAS3 orbitals                              0
      Secondary orbitals                       399
      Deleted orbitals                           0
      Number of basis functions                567
--

++    CI expansion specifications:
      ----------------------------

      Number of CSFs                            21
      Number of determinants                    21
      Number of root(s) required                21
      CI roots used                              1     2     3     4     5     6     7     8     9    10
                                                11    12    13    14    15    16    17    18    19    20
                                                21
      weights                                0.048 0.048 0.048 0.048 0.048 0.048 0.048 0.048 0.048 0.048
                                             0.048 0.048 0.048 0.048 0.048 0.048 0.048 0.048 0.048 0.048
                                             0.048
      highest root included in the CI           21
      Root passed to geometry opt.              21
--

++    Final optimization conditions:
      ------------------------------

      Average CI energy                          -13817.04203621
      RASSCF energy for state 21                 -13816.91648091
      Super-CI energy                                -0.00000000
      RASSCF energy change                           -0.00000000
      Max change in MO coefficients               0.697E-05
      Max non-diagonal density matrix element    -0.653E-05
      Maximum BLB matrix element                  0.242E-05
      (orbital pair 154, 174 in symmetry   1)
      Norm of electronic gradient            0.382E+00
--


      Final state energy(ies):
      ------------------------

::    RASSCF root number  1 Total energy: -13817.07743376
::    RASSCF root number  2 Total energy: -13817.07741201
::    RASSCF root number  3 Total energy: -13817.07665019
::    RASSCF root number  4 Total energy: -13817.07647151
::    RASSCF root number  5 Total energy: -13817.07637987
::    RASSCF root number  6 Total energy: -13817.07595353
::    RASSCF root number  7 Total energy: -13817.07564063
::    RASSCF root number  8 Total energy: -13817.07543422
::    RASSCF root number  9 Total energy: -13817.07522233
::    RASSCF root number 10 Total energy: -13817.07461656
::    RASSCF root number 11 Total energy: -13817.07459244
::    RASSCF root number 12 Total energy: -13817.04283325
::    RASSCF root number 13 Total energy: -13817.04243247
::    RASSCF root number 14 Total energy: -13817.04198553
::    RASSCF root number 15 Total energy: -13817.04190133
::    RASSCF root number 16 Total energy: -13817.04176904
::    RASSCF root number 17 Total energy: -13817.04161918
::    RASSCF root number 18 Total energy: -13817.04150288
::    RASSCF root number 19 Total energy: -13816.91892687
::    RASSCF root number 20 Total energy: -13816.91750191
::    RASSCF root number 21 Total energy: -13816.91648091

++    Molecular orbitals:
      -------------------

      Pseudonatural active orbitals and approximate occupation numbers


      MOLECULAR ORBITALS FOR SYMMETRY SPECIES 1: a  

      INDEX  ENERGY  OCCUPATION COEFFICIENTS ...
          1-1983.9664    2.0000                                                                                                           
               284 DY1    1s     ( 1.0000)
          2 -335.2804    2.0000                                                                                                           
               285 DY1    2s     ( 1.0000)
          3 -298.0913    2.0000                                                                                                           
               292 DY1    2px    ( 0.2707) 299 DY1    2py    ( 0.8397) 306 DY1    2pz    ( 0.4708)
          4 -298.0912    2.0000                                                                                                           
               292 DY1    2px    ( 0.9591) 299 DY1    2py    (-0.1934) 306 DY1    2pz    (-0.2066)
          5 -298.0912    2.0000                                                                                                           
               299 DY1    2py    (-0.5075) 306 DY1    2pz    ( 0.8577)
          6  -76.7657    2.0000                                                                                                           
               286 DY1    3s     ( 1.0000)
          7  -65.0440    2.0000                                                                                                           
               293 DY1    3px    ( 0.3390) 300 DY1    3py    ( 0.8139) 307 DY1    3pz    ( 0.4718)
          8  -65.0439    2.0000                                                                                                           
               293 DY1    3px    ( 0.9389) 300 DY1    3py    (-0.2610) 307 DY1    3pz    (-0.2243)
          9  -65.0438    2.0000                                                                                                           
               300 DY1    3py    (-0.5190) 307 DY1    3pz    ( 0.8527)
         10  -49.5901    2.0000                                                                                                           
               313 DY1    3d2-   ( 0.3847) 318 DY1    3d1-   ( 0.7419) 328 DY1    3d1+   ( 0.4971) 333 DY1    3d2+   (-0.2333)
      
         11  -49.5901    2.0000                                                                                                           
               313 DY1    3d2-   (-0.7652) 318 DY1    3d1-   ( 0.3180) 328 DY1    3d1+   (-0.1364) 333 DY1    3d2+   (-0.5420)
      
         12  -49.5899    2.0000                                                                                                           
               313 DY1    3d2-   (-0.3545) 318 DY1    3d1-   (-0.3685) 328 DY1    3d1+   ( 0.8566)
         13  -49.5899    2.0000                                                                                                           
               313 DY1    3d2-   (-0.3522) 318 DY1    3d1-   ( 0.4215) 323 DY1    3d0    ( 0.4139) 333 DY1    3d2+   ( 0.7256)
      
         14  -49.5898    2.0000                                                                                                           
               313 DY1    3d2-   ( 0.1297) 318 DY1    3d1-   (-0.1869) 323 DY1    3d0    ( 0.9098) 333 DY1    3d2+   (-0.3472)
      
[...]
   7     -0.577350269190     0.577350269190     0.577350269190     0.006101255491
   8      0.577350269190    -0.577350269190     0.577350269190     0.006101255491
   9     -0.577350269190    -0.577350269190     0.577350269190     0.006101255491
  10      0.706896546391     0.706896546391     0.024383301669     0.003242209201
  11     -0.706896546391     0.706896546391     0.024383301669     0.003242209201
  12      0.706896546391    -0.706896546391     0.024383301669     0.003242209201
  13     -0.706896546391    -0.706896546391     0.024383301669     0.003242209201
  14      0.706896546391     0.024383301669     0.706896546391     0.003242209201
  15     -0.706896546391     0.024383301669     0.706896546391     0.003242209201
  16      0.706896546391    -0.024383301669     0.706896546391     0.003242209201
  17     -0.706896546391    -0.024383301669     0.706896546391     0.003242209201
  18      0.024383301669     0.706896546391     0.706896546391     0.003242209201
  19     -0.024383301669     0.706896546391     0.706896546391     0.003242209201
  20      0.024383301669    -0.706896546391     0.706896546391     0.003242209201
  21     -0.024383301669    -0.706896546391     0.706896546391     0.003242209201
  22      0.479468262571     0.479468262571     0.734996850588     0.006011402970
  23     -0.479468262571     0.479468262571     0.734996850588     0.006011402970
  24      0.479468262571    -0.479468262571     0.734996850588     0.006011402970
  25     -0.479468262571    -0.479468262571     0.734996850588     0.006011402970
  26      0.479468262571     0.734996850588     0.479468262571     0.006011402970
  27     -0.479468262571     0.734996850588     0.479468262571     0.006011402970
  28      0.479468262571    -0.734996850588     0.479468262571     0.006011402970
  29     -0.479468262571    -0.734996850588     0.479468262571     0.006011402970
  30      0.734996850588     0.479468262571     0.479468262571     0.006011402970
  31     -0.734996850588     0.479468262571     0.479468262571     0.006011402970
  32      0.734996850588    -0.479468262571     0.479468262571     0.006011402970
  33     -0.734996850588    -0.479468262571     0.479468262571     0.006011402970
  34      0.192753315488     0.192753315488     0.962129055136     0.005981985059
  35     -0.192753315488     0.192753315488     0.962129055136     0.005981985059
  36      0.192753315488    -0.192753315488     0.962129055136     0.005981985059
  37     -0.192753315488    -0.192753315488     0.962129055136     0.005981985059
  38      0.192753315488     0.962129055136     0.192753315488     0.005981985059
  39     -0.192753315488     0.962129055136     0.192753315488     0.005981985059
  40      0.192753315488    -0.962129055136     0.192753315488     0.005981985059
  41     -0.192753315488    -0.962129055136     0.192753315488     0.005981985059
  42      0.962129055136     0.192753315488     0.192753315488     0.005981985059
  43     -0.962129055136     0.192753315488     0.192753315488     0.005981985059
  44      0.962129055136    -0.192753315488     0.192753315488     0.005981985059
  45     -0.962129055136    -0.192753315488     0.192753315488     0.005981985059
  46      0.693035796133     0.693035796133     0.198501311223     0.005964341288
  47     -0.693035796133     0.693035796133     0.198501311223     0.005964341288
  48      0.693035796133    -0.693035796133     0.198501311223     0.005964341288
  49     -0.693035796133    -0.693035796133     0.198501311223     0.005964341288
  50      0.693035796133     0.198501311223     0.693035796133     0.005964341288
  51     -0.693035796133     0.198501311223     0.693035796133     0.005964341288
  52      0.693035796133    -0.198501311223     0.693035796133     0.005964341288
  53     -0.693035796133    -0.198501311223     0.693035796133     0.005964341288
  54      0.198501311223     0.693035796133     0.693035796133     0.005964341288
  55     -0.198501311223     0.693035796133     0.693035796133     0.005964341288
  56      0.198501311223    -0.693035796133     0.693035796133     0.005964341288
  57     -0.198501311223    -0.693035796133     0.693035796133     0.005964341288
  58      0.360830211552     0.360830211552     0.860001812128     0.005443128475
  59     -0.360830211552     0.360830211552     0.860001812128     0.005443128475
  60      0.360830211552    -0.360830211552     0.860001812128     0.005443128475
  61     -0.360830211552    -0.360830211552     0.860001812128     0.005443128475
  62      0.360830211552     0.860001812128     0.360830211552     0.005443128475
  63     -0.360830211552     0.860001812128     0.360830211552     0.005443128475
  64      0.360830211552    -0.860001812128     0.360830211552     0.005443128475
  65     -0.360830211552    -0.860001812128     0.360830211552     0.005443128475
  66      0.860001812128     0.360830211552     0.360830211552     0.005443128475
  67     -0.860001812128     0.360830211552     0.360830211552     0.005443128475
  68      0.860001812128    -0.360830211552     0.360830211552     0.005443128475
  69     -0.860001812128    -0.360830211552     0.360830211552     0.005443128475
  70      0.649848616150     0.649848616150     0.394199888606     0.006067027592
  71     -0.649848616150     0.649848616150     0.394199888606     0.006067027592
  72      0.649848616150    -0.649848616150     0.394199888606     0.006067027592
  73     -0.649848616150    -0.649848616150     0.394199888606     0.006067027592
  74      0.649848616150     0.394199888606     0.649848616150     0.006067027592
  75     -0.649848616150     0.394199888606     0.649848616150     0.006067027592
  76      0.649848616150    -0.394199888606     0.649848616150     0.006067027592
  77     -0.649848616150    -0.394199888606     0.649848616150     0.006067027592
  78      0.394199888606     0.649848616150     0.649848616150     0.006067027592
  79     -0.394199888606     0.649848616150     0.649848616150     0.006067027592
  80      0.394199888606    -0.649848616150     0.649848616150     0.006067027592
  81     -0.394199888606    -0.649848616150     0.649848616150     0.006067027592
  82      0.193294501323     0.981140782843     0.000000000000     0.003007949555
  83     -0.193294501323     0.981140782843     0.000000000000     0.003007949555
  84      0.193294501323    -0.981140782843     0.000000000000     0.003007949555
  85     -0.193294501323    -0.981140782843     0.000000000000     0.003007949555
  86      0.981140782843     0.193294501323     0.000000000000     0.003007949555
  87     -0.981140782843     0.193294501323     0.000000000000     0.003007949555
  88      0.981140782843    -0.193294501323     0.000000000000     0.003007949555
  89     -0.981140782843    -0.193294501323     0.000000000000     0.003007949555
  90      0.193294501323     0.000000000000     0.981140782843     0.006015899110
  91     -0.193294501323     0.000000000000     0.981140782843     0.006015899110
  92      0.981140782843     0.000000000000     0.193294501323     0.006015899110
  93     -0.981140782843     0.000000000000     0.193294501323     0.006015899110
  94      0.000000000000     0.193294501323     0.981140782843     0.006015899110
  95      0.000000000000    -0.193294501323     0.981140782843     0.006015899110
  96      0.000000000000     0.981140782843     0.193294501323     0.006015899110
  97      0.000000000000    -0.981140782843     0.193294501323     0.006015899110
  98      0.380049491990     0.924966152699     0.000000000000     0.002881964603
  99     -0.380049491990     0.924966152699     0.000000000000     0.002881964603
 100      0.380049491990    -0.924966152699     0.000000000000     0.002881964603
 101     -0.380049491990    -0.924966152699     0.000000000000     0.002881964603
 102      0.924966152699     0.380049491990     0.000000000000     0.002881964603
 103     -0.924966152699     0.380049491990     0.000000000000     0.002881964603
 104      0.924966152699    -0.380049491990     0.000000000000     0.002881964603
 105     -0.924966152699    -0.380049491990     0.000000000000     0.002881964603
 106      0.380049491990     0.000000000000     0.924966152699     0.005763929206
 107     -0.380049491990     0.000000000000     0.924966152699     0.005763929206
 108      0.924966152699     0.000000000000     0.380049491990     0.005763929206
 109     -0.924966152699     0.000000000000     0.380049491990     0.005763929206
 110      0.000000000000     0.380049491990     0.924966152699     0.005763929206
 111      0.000000000000    -0.380049491990     0.924966152699     0.005763929206
 112      0.000000000000     0.924966152699     0.380049491990     0.005763929206
 113      0.000000000000    -0.924966152699     0.380049491990     0.005763929206
 114      0.289955882550     0.793453785658     0.535123047718     0.005916715253
 115     -0.289955882550     0.793453785658     0.535123047718     0.005916715253
 116      0.289955882550    -0.793453785658     0.535123047718     0.005916715253
 117     -0.289955882550    -0.793453785658     0.535123047718     0.005916715253
 118      0.289955882550     0.535123047718     0.793453785658     0.005916715253
 119     -0.289955882550     0.535123047718     0.793453785658     0.005916715253
 120      0.289955882550    -0.535123047718     0.793453785658     0.005916715253
 121     -0.289955882550    -0.535123047718     0.793453785658     0.005916715253
 122      0.793453785658     0.289955882550     0.535123047718     0.005916715253
 123     -0.793453785658     0.289955882550     0.535123047718     0.005916715253
 124      0.793453785658    -0.289955882550     0.535123047718     0.005916715253
 125     -0.793453785658    -0.289955882550     0.535123047718     0.005916715253
 126      0.793453785658     0.535123047718     0.289955882550     0.005916715253
 127     -0.793453785658     0.535123047718     0.289955882550     0.005916715253
 128      0.793453785658    -0.535123047718     0.289955882550     0.005916715253
 129     -0.793453785658    -0.535123047718     0.289955882550     0.005916715253
 130      0.535123047718     0.289955882550     0.793453785658     0.005916715253
 131     -0.535123047718     0.289955882550     0.793453785658     0.005916715253
 132      0.535123047718    -0.289955882550     0.793453785658     0.005916715253
 133     -0.535123047718    -0.289955882550     0.793453785658     0.005916715253
 134      0.535123047718     0.793453785658     0.289955882550     0.005916715253
 135     -0.535123047718     0.793453785658     0.289955882550     0.005916715253
 136      0.535123047718    -0.793453785658     0.289955882550     0.005916715253
 137     -0.535123047718    -0.793453785658     0.289955882550     0.005916715253
 138      0.096841214551     0.828080150669     0.552182074349     0.006072040053
 139     -0.096841214551     0.828080150669     0.552182074349     0.006072040053
 140      0.096841214551    -0.828080150669     0.552182074349     0.006072040053
 141     -0.096841214551    -0.828080150669     0.552182074349     0.006072040053
 142      0.096841214551     0.552182074349     0.828080150669     0.006072040053
 143     -0.096841214551     0.552182074349     0.828080150669     0.006072040053
 144      0.096841214551    -0.552182074349     0.828080150669     0.006072040053
 145     -0.096841214551    -0.552182074349     0.828080150669     0.006072040053
 146      0.828080150669     0.096841214551     0.552182074349     0.006072040053
 147     -0.828080150669     0.096841214551     0.552182074349     0.006072040053
 148      0.828080150669    -0.096841214551     0.552182074349     0.006072040053
 149     -0.828080150669    -0.096841214551     0.552182074349     0.006072040053
 150      0.828080150669     0.552182074349     0.096841214551     0.006072040053
 151     -0.828080150669     0.552182074349     0.096841214551     0.006072040053
 152      0.828080150669    -0.552182074349     0.096841214551     0.006072040053
 153     -0.828080150669    -0.552182074349     0.096841214551     0.006072040053
 154      0.552182074349     0.096841214551     0.828080150669     0.006072040053
 155     -0.552182074349     0.096841214551     0.828080150669     0.006072040053
 156      0.552182074349    -0.096841214551     0.828080150669     0.006072040053
 157     -0.552182074349    -0.096841214551     0.828080150669     0.006072040053
 158      0.552182074349     0.828080150669     0.096841214551     0.006072040053
 159     -0.552182074349     0.828080150669     0.096841214551     0.006072040053
 160      0.552182074349    -0.828080150669     0.096841214551     0.006072040053
 161     -0.552182074349    -0.828080150669     0.096841214551     0.006072040053
 162      0.183343464704     0.907465826531     0.378009189874     0.005664374808
 163     -0.183343464704     0.907465826531     0.378009189874     0.005664374808
 164      0.183343464704    -0.907465826531     0.378009189874     0.005664374808
 165     -0.183343464704    -0.907465826531     0.378009189874     0.005664374808
 166      0.183343464704     0.378009189874     0.907465826531     0.005664374808
 167     -0.183343464704     0.378009189874     0.907465826531     0.005664374808
 168      0.183343464704    -0.378009189874     0.907465826531     0.005664374808
 169     -0.183343464704    -0.378009189874     0.907465826531     0.005664374808
 170      0.907465826531     0.183343464704     0.378009189874     0.005664374808
 171     -0.907465826531     0.183343464704     0.378009189874     0.005664374808
 172      0.907465826531    -0.183343464704     0.378009189874     0.005664374808
 173     -0.907465826531    -0.183343464704     0.378009189874     0.005664374808
 174      0.907465826531     0.378009189874     0.183343464704     0.005664374808
 175     -0.907465826531     0.378009189874     0.183343464704     0.005664374808
 176      0.907465826531    -0.378009189874     0.183343464704     0.005664374808
 177     -0.907465826531    -0.378009189874     0.183343464704     0.005664374808
 178      0.378009189874     0.183343464704     0.907465826531     0.005664374808
 179     -0.378009189874     0.183343464704     0.907465826531     0.005664374808
 180      0.378009189874    -0.183343464704     0.907465826531     0.005664374808
 181     -0.378009189874    -0.183343464704     0.907465826531     0.005664374808
 182      0.378009189874     0.907465826531     0.183343464704     0.005664374808
 183     -0.378009189874     0.907465826531     0.183343464704     0.005664374808
 184      0.378009189874    -0.907465826531     0.183343464704     0.005664374808
 185     -0.378009189874    -0.907465826531     0.183343464704     0.005664374808
  --------------------------------------------------------------------------------
  The cut-off energy for the exact diagonalization of the Zeeman Hamiltonian is:
  E =  1300.907094000 cm(-1).
  The exact diagonalization of the Zeeman Hamiltonian included  16 exchange states.
  The magnetization vector was not calculated.
  Computation of the Zeeman splitting was not requested.

                         HIGH-FIELD POWDER MAGNETIZATION
                              (Units: Bohr magneton)

-----------|---------------|---------------|---------------|---------------|
   H(T)    |STATISTICAL SUM|     2.000 K.  |     4.000 K.  |     6.000 K.  |
-----------|---------------|---------------|---------------|---------------|
  0.000100 |     1.9995166 |  0.0010880063 |  0.0005457082 |  0.0003649422 |
  0.100000 |     1.6165967 |  1.0650165017 |  0.5427678816 |  0.3640671830 |
  0.200000 |     1.3801915 |  2.0072060251 |  1.0684257285 |  0.7229558709 |
  0.300000 |     1.2344249 |  2.7617431692 |  1.5623341112 |  1.0718343397 |
  0.400000 |     1.1445457 |  3.3273586107 |  2.0140192627 |  1.4065122375 |
  0.500000 |     1.0891264 |  3.7367692461 |  2.4177241427 |  1.7236444919 |
  0.600000 |     1.0549551 |  4.0295803011 |  2.7719518859 |  2.0208279018 |
  0.700000 |     1.0338852 |  4.2396288132 |  3.0784322745 |  2.2965961003 |
  0.800000 |     1.0208935 |  4.3921305790 |  3.3409531126 |  2.5503347983 |
  0.900000 |     1.0128829 |  4.5047573394 |  3.5643455656 |  2.7821465511 |
  1.000000 |     1.0079436 |  4.5895770519 |  3.7537399559 |  2.9926935792 |
  1.100000 |     1.0048980 |  4.6547718217 |  3.9140910763 |  3.1830413577 |
  1.200000 |     1.0030201 |  4.7059071613 |  4.0499181916 |  3.3545179703 |
  1.300000 |     1.0018622 |  4.7468038172 |  4.1651938948 |  3.5085969782 |
  1.400000 |     1.0011482 |  4.7801180580 |  4.2633254146 |  3.6468059847 |
  1.500000 |     1.0007080 |  4.8077234675 |  4.3471872182 |  3.7706594682 |
  1.600000 |     1.0004366 |  4.8309619277 |  4.4191778582 |  3.8816125387 |
  1.700000 |     1.0002692 |  4.8508094925 |  4.4812847153 |  3.9810315833 |
  1.800000 |     1.0001660 |  4.8679870111 |  4.5351475760 |  4.0701778365 |
  1.900000 |     1.0001023 |  4.8830347403 |  4.5821165745 |  4.1502003839 |
  2.000000 |     1.0000631 |  4.8963633036 |  4.6233027475 |  4.2221357303 |
  2.100000 |     1.0000389 |  4.9082889571 |  4.6596209500 |  4.2869116963 |
  2.200000 |     1.0000240 |  4.9190583240 |  4.6918256412 |  4.3453539687 |
  2.300000 |     1.0000148 |  4.9288659738 |  4.7205403724 |  4.3981940983 |
  2.400000 |     1.0000091 |  4.9378670797 |  4.7462818984 |  4.4460781024 |
  2.500000 |     1.0000056 |  4.9461866459 |  4.7694797951 |  4.4895751129 |
  2.600000 |     1.0000035 |  4.9539263174 |  4.7904923750 |  4.5291857086 |
  2.700000 |     1.0000021 |  4.9611694617 |  4.8096195825 |  4.5653497226 |
  2.800000 |     1.0000013 |  4.9679850046 |  4.8271134387 |  4.5984534106 |
  2.900000 |     1.0000008 |  4.9744303541 |  4.8431865079 |  4.6288359394 |
  3.000000 |     1.0000005 |  4.9805536527 |  4.8580187684 |  4.6567951964 |
  3.100000 |     1.0000003 |  4.9863955279 |  4.8717632002 |  4.6825929476 |
  3.200000 |     1.0000002 |  4.9919904651 |  4.8845503382 |  4.7064593904 |
  3.300000 |     1.0000001 |  4.9973678939 |  4.8964919920 |  4.7285971530 |
  3.400000 |     1.0000001 |  5.0025530541 |  4.9076842940 |  4.7491847935 |
  3.500000 |     1.0000000 |  5.0075676916 |  4.9182102045 |  4.7683798565 |
  3.600000 |     1.0000000 |  5.0124306215 |  4.9281415763 |  4.7863215342 |
  3.700000 |     1.0000000 |  5.0171581874 |  4.9375408624 |  4.8031329834 |
  3.800000 |     1.0000000 |  5.0217646376 |  4.9464625331 |  4.8189233388 |
  3.900000 |     1.0000000 |  5.0262624359 |  4.9549542554 |  4.8337894630 |
  4.000000 |     1.0000000 |  5.0306625198 |  4.9630578786 |  4.8478174672 |
  4.100000 |     1.0000000 |  5.0349745154 |  4.9708102598 |  4.8610840319 |
  4.200000 |     1.0000000 |  5.0392069178 |  4.9782439589 |  4.8736575557 |
  4.300000 |     1.0000000 |  5.0433672442 |  4.9853878236 |  4.8855991543 |
  4.400000 |     1.0000000 |  5.0474621617 |  4.9922674863 |  4.8969635300 |
  4.500000 |     1.0000000 |  5.0514975977 |  4.9989057842 |  4.9077997293 |
  4.600000 |     1.0000000 |  5.0554788333 |  5.0053231185 |  4.9181518034 |
  4.700000 |     1.0000000 |  5.0594105832 |  5.0115377608 |  4.9280593848 |
  4.800000 |     1.0000000 |  5.0632970651 |  5.0175661154 |  4.9375581919 |
  4.900000 |     1.0000000 |  5.0671420590 |  5.0234229454 |  4.9466804694 |
  5.000000 |     1.0000000 |  5.0709489587 |  5.0291215669 |  4.9554553753 |
-----------|---------------|---------------|---------------|---------------|
--- Stop Module: single_aniso at Thu Mar 27 16:40:59 2025 /rc=_RC_ALL_IS_WELL_ ---
*** files: xmldump
    saved to directory /media/korden/5fb66ce1-8053-4a4f-9303-c4fa91c2cea8/home/korden/calc/orca/Artem/binucliar_Dyacac_artion_1
--- Module single_aniso spent 19 seconds ---

>>> COPY artion1new.aniso /media/korden/5fb66ce1-8053-4a4f-9303-c4fa91c2cea8/home/korden/calc/orca/Artem/binucliar_Dyacac_artion_1/./master/inputs/artion1new.aniso
Error: file "/tmp/artion1new/artion1new.aniso" not found

    Timing: Wall=22769.33 User=22649.93 System=115.30