   This run of MOLCAS is using the pymolcas driver

                             OPE
                             OPE          NMOL  CASOP  ENMOLC A   SO
                 OPE        NMOLC        AS  OP EN  MO LC     AS  OP
                OPENM       OL CA        SO  PE NM  OL CA     SOP EN
                OP EN      MO   LC       AS  OP ENMOL  CASO   PENMOL
                OP  EN     MO   LC       AS  OP EN     MO     LC ASO
               OP   E  NMOL  C  AS       OP  EN MO     LC     AS  OP
               OP  E   NMO   LC AS        OPEN  MO     LCASOP EN   M
               O  PEN   MO  LCA  SO
            OPE   NMO   L   CAS    OP
        OPENMOL  CASOP     ENMOL   CASOPE
     OPENMOLCA   SOPENMOLCASOPEN   MOLCASOPE
    OPENMOLCAS   OP           EN   MOL    CAS
    OPENMOLCAS       OP  ENM        O     LCA
    OPENMOLCAS    OPEN  MOLCASO     P  E  NMO
    OPENMOLCAS     OP               E  N  MOL
    OPENMOLCA   SO           PENM   O  L  CAS    OPEN    MO    LCAS
    OPENMOLCA   SOP           ENM   O  L  CAS   OP  EN  MOLC  AS   O
    OPENMOLCA   SOPE           NM      O  LCA   S      OP  EN MO
    OPENMOLC                AS         O  PEN   M      OL  CA  SOPE
    OPENMO        LCASOPE  NMOL        C  ASO   P      ENMOLC     AS
    OPE     NMO      LCA  SO     P     E   NM   OL  CA SO  PE N   MO
          OPENMOLCA            SOPE   NMO        LCAS  O    P  ENMO
     OPENMOLCASOPENMOLCASOPENMOLCASOPENMOLCA
        OPENMOLCASOPENMOLCASOPENMOLCASOPE
            OPENMOLCASOPENMOLCASOPENM
               OPENMOLCASOPENMOLCA        version: v19.11 ?
                   OPENMOLCASO
                       OPE                tag:

 OpenMolcas is free software; you can redistribute it and/or modify it
 under the terms of the GNU Lesser General Public License version 2.1.
 OpenMolcas is distributed in the hope that it will be useful, but it
 is provided "as is" and without any express or implied warranties.
 For more details see the full text of the license in the file
 LICENSE or in <http://www.gnu.org/licenses/>.

                 Copyright (C) The OpenMolcas Authors
           For the author list and the recommended citation,
                   consult the file CONTRIBUTORS.md

           *************************************************
           * pymolcas version py2.06                       *
           *   build 99e611e35fc7aec87fd6f34cfa558dd4      *
           *   (after the EMIL interpreter by V. Veryazov) *
           *************************************************


 -- ----------------------------------

--- Start Module: seward at Mon Oct 23 14:09:10 2023 ---

()()()()()()()()()()()()()()()()()()()()()()()()()()()()()()()()()()()()()()()()()()()()()()()()()()

                                              &SEWARD

                                   only a single process is used
                       available to each process: 32 GB of memory, 1 thread?
                                            pid: 289088
()()()()()()()()()()()()()()()()()()()()()()()()()()()()()()()()()()()()()()()()()()()()()()()()()()

               SEWARD will generate:
                  Multipole Moment integrals up to order  2
                  Kinetic Energy integrals
                  Nuclear Attraction integrals (point charge)
                  One-Electron Hamiltonian integrals
                  Velocity integrals
                  Relativistic Douglas-Kroll integrals
                  Orbital angular momentum around ( 0.0605  8.6153 21.9775 )
                  Velocity quadrupole around (-0.6397  7.8180 22.1536 )
                  Atomic mean-field integrals
                  Cholesky decomposed two-electron repulsion integrals
                   - CD Threshold:   0.10E-07

                   Integrals are discarded if absolute value <: 0.10E-39
                   Integral cutoff threshold is set to       <: 0.10E-39

++    Symmetry information:
      ---------------------

                    Character Table for C1 

                             E  
                    a        1  x, y, xy, Rz, z, xz, Ry, yz, Rx, I
--


++    Basis set information:
      ----------------------


      Basis set label: DY.ANO-RCC...8S7P5D3F2G1H.

      Electronic valence basis set:
      ------------------
      Associated Effective Charge  66.000000 au
      Associated Actual Charge     66.000000 au
      Nuclear Model: Point charge

      Shell  nPrim  nBasis  Cartesian Spherical Contaminant
         s      25       8        X                  
         p      22       7        X                  
         d      15       5                 X         
         f      11       3                 X         
         g       4       2                 X         
         h       2       1                 X         


      Basis set label: N.ANO-RCC...4S3P2D1F.

      Electronic valence basis set:
      ------------------
      Associated Effective Charge   7.000000 au
      Associated Actual Charge      7.000000 au
      Nuclear Model: Point charge

      Shell  nPrim  nBasis  Cartesian Spherical Contaminant
         s      14       4        X                  
         p       9       3        X                  
         d       4       2                 X         
         f       3       1                 X         


      Basis set label: O.ANO-RCC...4S3P2D1F.

      Electronic valence basis set:
      ------------------
      Associated Effective Charge   8.000000 au
      Associated Actual Charge      8.000000 au
      Nuclear Model: Point charge

      Shell  nPrim  nBasis  Cartesian Spherical Contaminant
         s      14       4        X                  
         p       9       3        X                  
         d       4       2                 X         
         f       3       1                 X         


      Basis set label: C.ANO-RCC...3S2P1D.

      Electronic valence basis set:
      ------------------
      Associated Effective Charge   6.000000 au
      Associated Actual Charge      6.000000 au
      Nuclear Model: Point charge

      Shell  nPrim  nBasis  Cartesian Spherical Contaminant
         s      14       3        X                  
         p       9       2        X                  
         d       4       1                 X         


      Basis set label: H.ANO-RCC...1S.

      Electronic valence basis set:
      ------------------
      Associated Effective Charge   1.000000 au
      Associated Actual Charge      1.000000 au
      Nuclear Model: Point charge

      Shell  nPrim  nBasis  Cartesian Spherical Contaminant
         s       8       1        X                  
--


++    Molecular structure info:
      -------------------------

                    ************************************************ 
                    **** Cartesian Coordinates / Bohr, Angstrom **** 
                    ************************************************ 

     Center  Label                x              y              z                     x              y              z
        1      DY1              0.060471       8.615261      21.977515              0.032000       4.559000      11.630000
        2      N1              -0.897620       3.951417      23.340007             -0.475000       2.091000      12.351000
        3      N2              -3.972204       0.729434      23.965507             -2.102000       0.386000      12.682000
        4      N3              -7.649611       4.312355      23.923933             -4.048000       2.282000      12.660000
        5      N4              -4.595814       7.362373      22.754192             -2.432000       3.896000      12.041000
        6      O1              -1.640282      10.830020      25.397919             -0.868000       5.731000      13.440000
        7      O2               3.303241       6.383495      20.099127              1.748000       3.378000      10.636000
        8      O3              -1.933190      11.973305      20.010310             -1.023000       6.336000      10.589000
        9      O4              -1.587370       6.814352      18.336013             -0.840000       3.606000       9.703000
       10      O5               2.536012       7.710083      25.498075              1.342000       4.080000      13.493000
       11      O6               3.121828      11.657720      21.306662              1.652000       6.169000      11.275000
       12      C1              -3.276785       3.110489      23.574333             -1.734000       1.646000      12.475000
       13      C2              -6.447746       9.100921      22.578448             -3.412000       4.816000      11.948000
       14      C3              -5.300682       5.051238      23.392920             -2.805000       2.673000      12.379000
       15      C4               3.318359      13.555005      19.872360              1.756000       7.173000      10.516000
       16      C5               0.939194       2.210980      23.578113              0.497000       1.170000      12.477000
       17      C6               1.315249      14.637819      18.579787              0.696000       7.746000       9.832000
       18      C7              -1.190527      13.859251      18.776319             -0.630000       7.334000       9.936000
       19      C8              -2.078699      -0.946753      24.156369             -1.100000      -0.501000      12.783000
       20      C9               0.411960      -0.289128      23.999522              0.218000      -0.153000      12.700000
       21      C10              3.586700       5.043679      18.139481              1.898000       2.669000       9.599000
       22      C11              1.649731       4.423849      16.476522              0.873000       2.341000       8.719000
       23      C12             -1.617606      10.476642      27.744959             -0.856000       5.544000      14.682000
       24      C13              5.920512      14.705849      19.645593              3.133000       7.782000      10.396000
       25      C14             -8.911948       8.534003      23.052769             -4.716000       4.516000      12.199000
       26      C15             -9.424064       6.107595      23.740629             -4.987000       3.232000      12.563000
       27      C16             -0.825810       5.304461      16.676833             -0.437000       2.807000       8.825000
       28      C17              2.226097       7.872599      27.847004              1.178000       4.166000      14.736000
       29      C18             -3.212534      15.405047      17.479967             -1.700000       8.152000       9.250000
       30      C19              6.194522       4.021337      17.684057              3.278000       2.128000       9.358000
       31      C20             -2.776008       4.416290      14.785217             -1.469000       2.337000       7.824000
       32      C21              0.209760       9.100921      28.997847              0.111000       4.816000      15.345000
       33      C22             -3.756776      11.667169      29.222725             -1.988000       6.174000      15.464000
       34      C23              4.225428       6.598924      29.472169              2.236000       3.492000      15.596000
       35      H1              -6.030116      10.744983      22.119244             -3.191000       5.686000      11.705000
       36      H2               2.617271       2.719316      23.451501              1.385000       1.439000      12.410000
       37      H3               1.668628      15.983304      17.504533              0.883000       8.458000       9.263000
       38      H4              -2.481210      -2.639947      24.409592             -1.313000      -1.397000      12.917000
       39      H5               1.691305      -1.481545      24.169597              0.895000      -0.784000      12.790000
       40      H6               2.031456       3.348595      15.140486              1.075000       1.772000       8.012000
       41      H7               6.207750      15.830236      21.038321              3.285000       8.377000      11.133000
       42      H8               6.039565      15.628035      18.088458              3.196000       8.270000       9.572000
       43      H9               7.167731      13.388710      19.664490              3.793000       7.085000      10.406000
       44      H10            -10.181844       9.741538      22.916709             -5.388000       5.155000      12.127000
       45      H11            -11.090803       5.674848      24.101567             -5.869000       3.003000      12.754000
       46      H12             -3.441191      14.802225      15.784882             -1.821000       7.833000       8.353000
       47      H13             -2.707978      17.147375      17.440282             -1.433000       9.074000       9.229000
       48      H14             -4.771558      15.246310      18.394594             -2.525000       8.068000       9.734000
       49      H15              7.392609       5.383830      17.716182              3.912000       2.849000       9.375000
       50      H16              6.251214       3.204976      16.064562              3.308000       1.696000       8.501000
       51      H17              6.610262       2.821361      18.980409              3.498000       1.493000      10.044000
       52      H18             -4.149839       3.622605      15.662050             -2.196000       1.917000       8.288000
       53      H19             -2.014448       3.227652      13.647602             -1.066000       1.708000       7.222000
       54      H20             -3.397728       5.839254      13.847913             -1.798000       3.090000       7.328000
       55      H21              0.081258       8.987537      30.745844              0.043000       4.756000      16.270000
       56      H22             -3.637723      13.475637      29.113121             -1.925000       7.131000      15.406000
       57      H23             -3.645282      11.160722      30.963163             -1.929000       5.906000      16.385000
       58      H24             -5.346035      11.124818      28.536754             -2.829000       5.887000      15.101000
       59      H25              4.888721       5.157063      28.597225              2.587000       2.729000      15.133000
       60      H26              3.477096       6.064131      31.038752              1.840000       3.209000      16.425000
       61      H27              5.565243       7.772444      29.814209              2.945000       4.113000      15.777000

                    ************************************************* 
                    **** InterNuclear Distances / Bohr, Angstrom **** 
                    ************************************************* 

     Atom centers         Bohr        Angstrom
   55 H21      32 C21     1.756377        0.929435
   40 H6       22 C11     1.756951        0.929739
   39 H5       20 C9      1.757130        0.929833
   35 H1       13 C2      1.757334        0.929941
   44 H10      25 C14     1.757637        0.930102
   36 H2       16 C5      1.757947        0.930266
   37 H3       17 C6      1.758231        0.930416
   38 H4       19 C8      1.758706        0.930667
   45 H11      26 C15     1.759421        0.931046
   59 H25      34 C23     1.812304        0.959030
   52 H18      31 C20     1.812783        0.959284
   41 H7       24 C13     1.812855        0.959322
   53 H19      31 C20     1.813009        0.959403
   46 H12      29 C18     1.813557        0.959693
   42 H8       24 C13     1.813628        0.959731
   61 H27      34 C23   
   54 H20      31 C20     1.813808        0.959826
   58 H24      33 C22     1.813959        0.959906
   43 H9       24 C13     1.814048        0.959953
   47 H13      29 C18     1.814348        0.960111
   48 H14      29 C18     1.814469        0.960176
   50 H16      30 C19     1.814504        0.960194
   49 H15      30 C19     1.814615        0.960253
   51 H17      30 C19     1.814748        0.960323
   56 H22      33 C22     1.815693        0.960824
   57 H23      33 C22     1.816051        0.961013
   60 H26      34 C23     1.816641        0.961325
   27 C16       9 O4      2.369097        1.253672
   18 C7        8 O3      2.372989        1.255732
   23 C12       6 O1      2.373602        1.256056
   28 C17      10 O5      2.374853        1.256718
   15 C4       11 O6      2.386533        1.262899
   21 C10       7 O2      2.390746        1.265128
   14 C3        5 N4      2.499231        1.322536
   12 C1        3 N2      2.511184        1.328862
   14 C3        4 N3      2.519006        1.333001
   26 C15       4 N3      2.530844        1.339265
   12 C1        2 N1      2.534264        1.341075
   19 C8        3 N2      2.536019        1.342004
   16 C5        2 N1      2.541595        1.344954
   13 C2        5 N4      2.546191        1.347386
   25 C14      13 C2      2.572678        1.361403
   26 C15      25 C14     2.573494        1.361834
   20 C9       19 C8      2.580785        1.365693
   20 C9       16 C5      2.589614        1.370365
   32 C21      23 C12     2.607988        1.380088
   17 C6       15 C4      2.618335        1.385563
   32 C21      28 C17     2.626563        1.389917
   22 C11      21 C10     2.627065        1.390183
   18 C7       17 C6      2.631294        1.392421
   27 C16      22 C11     2.635129        1.394450
   14 C3       12 C1      2.809906        1.486938
   30 C19      21 C10     2.837839        1.501720
   24 C13      15 C4      2.854306        1.510434
   29 C18      18 C7      2.856313        1.511496
   31 C20      27 C16     2.858379        1.512589
   33 C22      23 C12     2.859580        1.513224
   34 C23      28 C17     2.874149        1.520934
   43 H9       41 H7      2.961423        1.567117
   54 H20      52 H18     2.961469        1.567142
   42 H8       41 H7      2.961564        1.567192
   43 H9       42 H8      2.961623        1.567224
   53 H19      52 H18     2.962074        1.567462
   54 H20      53 H19     2.962102        1.567477
   51 H17      49 H15     2.962517        1.567697
   60 H26      59 H25   
   58 H24      56 H22     2.962580        1.567730
   47 H13      46 H12     2.962715        1.567801
   48 H14      46 H12   
   50 H16      49 H15     2.962775        1.567833
   51 H17      50 H16     2.962802        1.567847
   61 H27      60 H26   
   61 H27      59 H25     2.962929        1.567915
   58 H24      57 H23     2.963327        1.568125
   57 H23      56 H22     2.963367        1.568146
   48 H14      47 H13     2.963633        1.568287
   45 H11       4 N3      3.705366        1.960795
   38 H4        3 N2      3.711200        1.963883
   36 H2        2 N1      3.726253        1.971848
   35 H1        5 N4      3.728596        1.973088
   45 H11      25 C14     3.744617        1.981566
   35 H1       25 C14     3.750314        1.984581
   38 H4       20 C9    
   55 H21      23 C12     3.756179        1.987684
   36 H2       20 C9      3.770206        1.995107
   37 H3       15 C4      3.771584        1.995836
   55 H21      28 C17     3.774479        1.997369
   40 H6       21 C10     3.779692        2.000127
   37 H3       18 C7      3.782037        2.001368
   40 H6       27 C16     3.788106        2.004579
   44 H10      26 C15     3.802449        2.012169
   44 H10      13 C2      3.803722        2.012843
   39 H5       19 C8      3.807769        2.014985
   39 H5       16 C5      3.814481        2.018536
   49 H15      21 C10     3.844454        2.034397
   50 H16      21 C10     3.845225        2.034805
   51 H17      21 C10     3.845489        2.034945
   41 H7       15 C4      3.858072        2.041604
   42 H8       15 C4    
   43 H9       15 C4      3.858566        2.041865
   48 H14      18 C7      3.859201        2.042201
   47 H13      18 C7      3.859975        2.042611
   53 H19      27 C16     3.860341        2.042805
   46 H12      18 C7      3.860489        2.042883
   54 H20      27 C16     3.860512        2.042895
   52 H18      27 C16     3.861035        2.043172
   57 H23      23 C12     3.864747        2.045136
   56 H22      23 C12     3.866098        2.045851
   58 H24      23 C12     3.866298        2.045957
   60 H26      28 C17     3.875926        2.051052
   59 H25      28 C17     3.876408        2.051307
   61 H27      28 C17     3.876832        2.051531
   19 C8       12 C1      4.270291        2.259741
   26 C15      14 C3      4.270723        2.259969
   14 C3       13 C2      4.287080        2.268625
   16 C5       12 C1      4.310871        2.281215
   53 H19      40 H6      4.314240        2.282997
   57 H23      55 H21     4.319382        2.285718
   50 H16      40 H6      4.322141        2.287179
   45 H11      44 H10     4.332213        2.292508
   39 H5       38 H4      4.336978        2.295030
   44 H10      35 H1      4.345077        2.299316
   39 H5       36 H2      4.361228        2.307862
    7 O2        1 DY1     4.361729        2.308128
   11 O6        1 DY1     4.367895        2.311390
    8 O3        1 DY1     4.372761        2.313965
   26 C15      13 C2      4.378258        2.316874
    9 O4        1 DY1     4.383970        2.319897
   10 O5        1 DY1     4.397953        2.327297
   32 C21       6 O1      4.401355        2.329097
   19 C8       16 C5      4.406056        2.331584
    6 O1        1 DY1     4.415528        2.336597
   42 H8       37 H3      4.424056        2.341110
   17 C6       11 O6      4.424992        2.341605
   32 C21      10 O5      4.426544        2.342426
   22 C11       9 O4      4.432949        2.345815
   22 C11       7 O2      4.438195        2.348592
   17 C6        8 O3      4.438286        2.348640
   31 C20       9 O4      4.446539        2.353007
   30 C19       7 O2      4.446556        2.353016
   33 C22       6 O1      4.450786        2.355255
   29 C18       8 O3      4.451541        2.355654
   34 C23      10 O5      4.458948        2.359574
   24 C13      11 O6      4.459021        2.359612
    5 N4        4 N3      4.471754        2.366350
   25 C14       5 N4      4.482285        2.371923
   20 C9        2 N1      4.486890        2.374360
   60 H26      55 H21     4.490414        2.376225
   25 C14       4 N3      4.491629        2.376868
    3 N2        2 N1      4.497276        2.379856
   20 C9        3 N2      4.501058        2.381857
   12 C1        5 N4      4.526697        2.395425
   47 H13      37 H3      4.529224        2.396762
   14 C3        2 N1      4.538652        2.401751
   12 C1        4 N3      4.548440        2.406931
   14 C3        3 N2      4.557488        2.411719
   48 H14       8 O3      4.623791        2.446805
   28 C17      23 C12     4.643867        2.457429
   18 C7       15 C4      4.650154        2.460755
   59 H25      10 O5      4.653803        2.462687
   27 C16      21 C10     4.655920        2.463807
   43 H9       11 O6      4.697062        2.485578
   30 C19      22 C11     4.719670        2.497542
   29 C18      17 C6      4.722189        2.498875
   24 C13      17 C6      4.727474        2.501672
   33 C22      32 C21     4.729651        2.502824
   31 C20      22 C11     4.737904        2.507191
   34 C23      32 C21     4.755056        2.516267
   35 H1        8 O3      4.768772        2.523525
   50 H16      22 C11     4.777971        2.528394
   53 H19      22 C11     4.781201        2.530103
   57 H23      32 C21     4.792347        2.536001
   49 H15       7 O2      4.837425        2.559855
   42 H8       17 C6      4.851916        2.567523
   58 H24       6 O1      4.865367        2.574641
   47 H13      17 C6      4.876751        2.580665
    5 N4        1 DY1     4.884050        2.584528
   52 H18       9 O4      4.889128        2.587215
   60 H26      32 C21     4.905392        2.595822
   37 H3       29 C18     4.915357        2.601095
   55 H21      33 C22     4.922481        2.604865
   40 H6       30 C19     4.924780        2.606082
   37 H3       24 C13     4.928950        2.608288
   54 H20       9 O4      4.936725        2.612402
   40 H6       31 C20     4.937397        2.612758
   55 H21      34 C23     4.949936        2.619393
    2 N1        1 DY1     4.952350        2.620671
   56 H22       6 O1      4.979134        2.634844
   51 H17       7 O2      4.987656        2.639354
   36 H2        7 O2      5.013499        2.653030
   25 C14      14 C3      5.028579        2.661009
   20 C9       12 C1      5.034384        2.664081
    5 N4        2 N1      5.065021        2.680294
   26 C15       5 N4      5.085226        2.690986
   19 C8        2 N1      5.104259        2.701058
   13 C2        4 N3      5.117145        2.707877
    4 N3        3 N2      5.134430        2.717023
   16 C5        3 N2      5.144597        2.722404
   41 H7       11 O6      5.196615        2.749930
   10 O5        6 O1      5.213970        2.759114
    9 O4        7 O2      5.216540        2.760474
   11 O6        8 O3      5.228128        2.766606
    6 O1        5 N4      5.267736        2.787566
   61 H27      10 O5      5.273438        2.790583
   46 H12       8 O3      5.303875        2.806690
    9 O4        5 N4      5.373209        2.843380
   36 H2       10 O5      5.394703        2.854754
   11 O6        7 O2      5.413733        2.864824
    9 O4        8 O3      5.434855        2.876002
   28 C17       6 O1      5.449151        2.883567
   18 C7       11 O6      5.463129        2.890964
   27 C16       7 O2      5.470418        2.894821
   21 C10       9 O4      5.472194        2.895761
   23 C12      10 O5      5.473105        2.896243
   35 H1        6 O1      5.479743        2.899755
   15 C4        8 O3      5.486308        2.903229
    8 O3        6 O1      5.515363        2.918604
   46 H12      17 C6      5.519262        2.920668
   46 H12      37 H3      5.519275        2.920675
   10 O5        2 N1      5.529435        2.926051
   61 H27      32 C21     5.577859        2.951676
   41 H7       17 C6      5.603821        2.965414
   10 O5        7 O2      5.612229        2.969863
--


            Nuclear Potential Energy           6011.35351665 au


      Basis set specifications :
      Symmetry species         a  
      Basis functions          753

      Cholesky vectors        9958


 Sorry, Molden does not know how to handle
 functions with angular momentum larger than g
--- Stop Module: seward at Mon Oct 23 20:20:48 2023 /rc=_RC_ALL_IS_WELL_ ---
*** files: dybpm.GssOrb xmldump
    saved to directory /home/korden/calc/molcasfiles/dybpm
--- Module seward spent 6 hours 11 minutes 37 seconds ---

*** symbolic link created: INPORB -> dybpm.GssOrb
--- Start Module: rasscf at Mon Oct 23 20:20:48 2023 ---

()()()()()()()()()()()()()()()()()()()()()()()()()()()()()()()()()()()()()()()()()()()()()()()()()()

                                              &RASSCF

                                   only a single process is used
                       available to each process: 32 GB of memory, 1 thread?
                                            pid: 291284
()()()()()()()()()()()()()()()()()()()()()()()()()()()()()()()()()()()()()()()()()()()()()()()()()()


      Header of the ONEINT file:
      --------------------------
      
      Integrals generated by Gateway/Seward, Mon Oct 23 14:09:10 2023


      OrdInt status: non-squared


      Cartesian coordinates in Angstrom:
      -----------------------------------------------------
      No.  Label        X            Y            Z        
      -----------------------------------------------------
       1   DY1        0.03200000   4.55900000  11.63000000
       2   N1        -0.47500000   2.09100000  12.35100000
       3   N2        -2.10200000   0.38600000  12.68200000
       4   N3        -4.04800000   2.28200000  12.66000000
       5   N4        -2.43200000   3.89600000  12.04100000
       6   O1        -0.86800000   5.73100000  13.44000000
       7   O2         1.74800000   3.37800000  10.63600000
       8   O3        -1.02300000   6.33600000  10.58900000
       9   O4        -0.84000000   3.60600000   9.70300000
      10   O5         1.34200000   4.08000000  13.49300000
      11   O6         1.65200000   6.16900000  11.27500000
      12   C1        -1.73400000   1.64600000  12.47500000
      13   C2        -3.41200000   4.81600000  11.94800000
      14   C3        -2.80500000   2.67300000  12.37900000
      15   C4         1.75600000   7.17300000  10.51600000
      16   C5         0.49700000   1.17000000  12.47700000
      17   C6         0.69600000   7.74600000   9.83200000
      18   C7        -0.63000000   7.33400000   9.93600000
      19   C8        -1.10000000  -0.50100000  12.78300000
      20   C9         0.21800000  -0.15300000  12.70000000
      21   C10        1.89800000   2.66900000   9.59900000
      22   C11        0.87300000   2.34100000   8.71900000
      23   C12       -0.85600000   5.54400000  14.68200000
      24   C13        3.13300000   7.78200000  10.39600000
      25   C14       -4.71600000   4.51600000  12.19900000
      26   C15       -4.98700000   3.23200000  12.56300000
      27   C16       -0.43700000   2.80700000   8.82500000
      28   C17        1.17800000   4.16600000  14.73600000
      29   C18       -1.70000000   8.15200000   9.25000000
      30   C19        3.27800000   2.12800000   9.35800000
      31   C20       -1.46900000   2.33700000   7.82400000
      32   C21        0.11100000   4.81600000  15.34500000
      33   C22       -1.98800000   6.17400000  15.46400000
      34   C23        2.23600000   3.49200000  15.59600000
      35   H1        -3.19100000   5.68600000  11.70500000
      36   H2         1.38500000   1.43900000  12.41000000
      37   H3         0.88300000   8.45800000   9.26300000
      38   H4        -1.31300000  -1.39700000  12.91700000
      39   H5         0.89500000  -0.78400000  12.79000000
      40   H6         1.07500000   1.77200000   8.01200000
      41   H7         3.28500000   8.37700000  11.13300000
      42   H8         3.19600000   8.27000000   9.57200000
      43   H9         3.79300000   7.08500000  10.40600000
      44   H10       -5.38800000   5.15500000  12.12700000
      45   H11       -5.86900000   3.00300000  12.75400000
      46   H12       -1.82100000   7.83300000   8.35300000
      47   H13       -1.43300000   9.07400000   9.22900000
      48   H14       -2.52500000   8.06800000   9.73400000
      49   H15        3.91200000   2.84900000   9.37500000
      50   H16        3.30800000   1.69600000   8.50100000
      51   H17        3.49800000   1.49300000  10.04400000
      52   H18       -2.19600000   1.91700000   8.28800000
      53   H19       -1.06600000   1.70800000   7.22200000
      54   H20       -1.79800000   3.09000000   7.32800000
      55   H21        0.04300000   4.75600000  16.27000000
      56   H22       -1.92500000   7.13100000  15.40600000
      57   H23       -1.92900000   5.90600000  16.38500000
      58   H24       -2.82900000   5.88700000  15.10100000
      59   H25        2.58700000   2.72900000  15.13300000
      60   H26        1.84000000   3.20900000  16.42500000
      61   H27        2.94500000   4.11300000  15.77700000
      -----------------------------------------------------
      Nuclear repulsion energy = 6011.35351665

++    Wave function specifications:
      -----------------------------

      Number of closed shell electrons         298
      Number of electrons in active shells       9
      Max number of holes in RAS1 space          0
      Max nr of electrons in RAS3 space          0
      Number of inactive orbitals              149
      Number of active orbitals                  7
      Number of secondary orbitals             597
      Spin quantum number                      2.5
      State symmetry                             1
--

++    Orbital specifications:
      -----------------------

      Symmetry species                           1
                                                 a
      Frozen orbitals                            0
      Inactive orbitals                        149
      Active orbitals                            7
      RAS1 orbitals                              0
      RAS2 orbitals                              7
      RAS3 orbitals                              0
      Secondary orbitals                       597
      Deleted orbitals                           0
      Number of basis functions                753
--

++    CI expansion specifications:
      ----------------------------

      Number of CSFs                            21
      Number of determinants                    21
      Number of root(s) required                21
      Root chosen for geometry opt.             21
      CI roots used                              1     2     3     4     5     6     7     8     9    10
                                                11    12    13    14    15    16    17    18    19    20
                                                21
      weights                                0.048 0.048 0.048 0.048 0.048 0.048 0.048 0.048 0.048 0.048
                                             0.048 0.048 0.048 0.048 0.048 0.048 0.048 0.048 0.048 0.048
                                             0.048
      highest root included in the CI           21
      max. size of the explicit Hamiltonian     21
--

++    Optimization specifications:
      ----------------------------

      RASSCF algorithm: LK Cholesky
      Maximum number of macro iterations       200
      Maximum number of SX iterations          100
      Threshold for RASSCF energy            0.100E-07
      Threshold for max MO rotation          0.100E+00
      Threshold for max BLB element          0.100E-03
      Level shift parameter                  0.500E+00
      Make Quasi-Newton update
--

      Orbitals from runfile: guessorb orbitals
      The MO-coefficients are taken from guessorb on runfile

      Total molecular charge    0.00

      ************************************************************************************************************************
      *                                                                                                                      *
      *                                            Wave function control section                                             *
      *                                                                                                                      *
      ************************************************************************************************************************


                                         RASSCF iterations: Energy and convergence statistics
                                         ----------------------------------------------------

      Iter CI   SX   CI       RASSCF       Energy    max ROT     max BLB   max BLB  Level Ln srch  Step   QN   Walltime
          iter iter root      energy       change     param      element    value   shift minimum  type update hh:mm:ss
 Nr of preliminary CI iterations:   1
      Total energies have been shifted. Add               -13000.00 au
        1   1   12    0  -685.19047174    0.00E+00  -0.20E+00* 146 747 1  0.16E+01*  4.38   0.00    SX    NO    0:46:12
        2   1   12    0  -691.34811955   -0.62E+01* -0.18E+00* 143 150 1  0.67E+00*  2.69   0.00    SX    NO    0:21:00
        3   1   12    0  -694.91450543   -0.36E+01*  0.19E+00*  56 738 1 -0.38E+00*  1.77   0.00    SX    NO    0:22:01
        4   1   12    0  -697.21330462   -0.23E+01*  0.20E+00* 148 156 1 -0.27E+00*  1.03   0.00    SX    NO    0:23:25
        5   1   12    0  -698.68510903   -0.15E+01*  0.12E+00* 148 156 1 -0.18E+00*  0.59   2.18    QN   YES    0:24:20
        6   1   13    0  -699.38106715   -0.70E+00* -0.12E+00* 146 153 1  0.13E+00*  0.50   2.50    QN   YES    0:24:40
        7   1   13    0  -699.95241610   -0.57E+00* -0.13E+00* 146 153 1  0.12E+00*  0.50   2.50    QN   YES    0:24:49
        8   1   13    0  -700.38564912   -0.43E+00* -0.12E+00* 146 153 1  0.89E-01*  0.49   2.50    QN   YES    0:24:39
        9   1   14    0  -700.64977315   -0.26E+00* -0.11E+00*  56 738 1  0.67E-01*  0.45   1.96    QN   YES    0:25:01
       10   1   14    0  -700.79446606   -0.14E+00* -0.19E+00* 145 151 1  0.98E-01*  0.42   2.50    QN   YES    0:25:09
       11   1   13    0  -700.94982960   -0.16E+00* -0.23E+00* 145 151 1  0.12E+00*  0.42   2.34    QN   YES    0:24:30
       12   1   13    0  -701.07104128   -0.12E+00*  0.66E-01  144 151 1 -0.83E-01*  0.36   1.11    QN   YES    0:24:03
       13   1   13    0  -701.11397794   -0.43E-01*  0.65E-01  144 151 1 -0.51E-01*  0.36   1.73    QN   YES    0:24:21
       14   1   13    0  -701.15251558   -0.39E-01* -0.25E-01   56 738 1 -0.31E-01*  0.37   1.40    QN   YES    0:24:50
       15   1   12    0  -701.16339237   -0.11E-01*  0.38E-02   56 738 1 -0.21E-01*  0.39   1.42    QN   YES    0:25:26
       16   1   11    0  -701.16578030   -0.24E-02*  0.22E-02   27 753 1 -0.28E-02*  0.40   1.21    QN   YES    0:25:51
       17   1   11    0  -701.16603208   -0.25E-03*  0.16E-02   56 738 1 -0.39E-02*  0.40   1.00    QN   YES    0:27:55
       18   1   10    0  -701.16608501   -0.53E-04* -0.11E-02   56 738 1  0.25E-02*  0.40   0.89    QN   YES    0:27:35
       19   1    9    0  -701.16609836   -0.13E-04*  0.25E-03   57 750 1 -0.39E-03*  0.40   1.19    QN   YES    0:27:59
       20   1    8    0  -701.16610079   -0.24E-05*  0.11E-03   56 738 1 -0.24E-03*  0.40   1.13    QN   YES    0:29:47
       21   1    8    0  -701.16610139   -0.60E-06* -0.93E-04   56 738 1 -0.14E-03*  0.40   1.50    QN   YES    0:30:05
       22   1    7    0  -701.16610162   -0.23E-06* -0.43E-04  146 160 1 -0.38E-04   0.40   1.22    QN   YES    0:30:26
       23   1    7    0  -701.16610167   -0.52E-07*  0.27E-04   56 738 1  0.25E-04   0.40   1.31    QN   YES    0:31:24
       24   1    6    0  -701.16610169   -0.18E-07*  0.10E-04   57 750 1 -0.12E-04   0.40   1.20    QN   YES    0:31:24
       25   1    6    0  -701.16610169   -0.31E-08  -0.64E-05  137 157 1 -0.47E-05   0.40   2.50    QN   YES    0:31:56
      Convergence after 25 iterations
       26   1    6    0  -701.16610169   -0.23E-08  -0.64E-05   56 738 1 -0.38E-05   0.40   2.50    QN   YES    0:32:15

      ************************************************************************************************************************
                                                      Wave function printout:
                       occupation of active orbitals, and spin coupling of open shells (u,d: Spin up or down)
      ************************************************************************************************************************

      Note: transformation to natural orbitals
      has been made, which may change the order of the CSFs.

      printout of CI-coefficients larger than  0.05 for root  1
      energy=  -13701.201429
      conf/sym  1111111     Coeff  Weight
             1  22uuuuu  -0.21411 0.04585
             2  2u2uuuu  -0.13098 0.01715
             3  u22uuuu   0.05767 0.00333
             4  2uu2uuu   0.18904 0.03574
             5  2uuu2uu  -0.09835 0.00967
             6  2uuuu2u  -0.23064 0.05320
             7  2uuuuu2  -0.52719 0.27793
             8  u2u2uuu   0.63130 0.39854
            11  u2uuuu2   0.18070 0.03265
            12  uu22uuu  -0.25044 0.06272
            15  uu2uuu2  -0.07835 0.00614
            16  uuu22uu   0.20533 0.04216
            18  uuuu22u  -0.07153 0.00512
            19  uuu2uu2   0.07762 0.00603

      printout of CI-coefficients larger than  0.05 for root  2
      energy=  -13701.201427
      conf/sym  1111111     Coeff  Weight
             1  22uuuuu  -0.53481 0.28602
             2  2u2uuuu   0.21235 0.04509
             3  u22uuuu   0.08933 0.00798
             4  2uu2uuu   0.32486 0.10554
             5  2uuu2uu   0.13374 0.01789
             7  2uuuuu2   0.19091 0.03645
             8  u2u2uuu  -0.27456 0.07538
             9  u2uu2uu   0.10622 0.01128
            10  u2uuu2u   0.11975 0.01434
            11  u2uuuu2   0.26816 0.07191
            12  uu22uuu  -0.11017 0.01214
            15  uu2uuu2  -0.07261 0.00527
            16  uuu22uu   0.07280 0.00530
            17  uuu2u2u   0.17966 0.03228
            19  uuu2uu2   0.51071 0.26083
            20  uuuu2u2  -0.09821 0.00964

      printout of CI-coefficients larger than  0.05 for root  3
      energy=  -13701.200706
      conf/sym  1111111     Coeff  Weight
             2  2u2uuuu  -0.06149 0.00378
             3  u22uuuu   0.59324 0.35193
             4  2uu2uuu   0.13215 0.01746
             5  2uuu2uu   0.31211 0.09741
             6  2uuuu2u   0.07419 0.00550
             7  2uuuuu2  -0.11040 0.01219
             8  u2u2uuu   0.09295 0.00864
             9  u2uu2uu  -0.29367 0.08624
            10  u2uuu2u  -0.29213 0.08534
            12  uu22uuu   0.38272 0.14647
            13  uu2u2uu   0.15878 0.02521
            16  uuu22uu  -0.27228 0.07414
            17  uuu2u2u  -0.18487 0.03418
            18  uuuu22u  -0.05808 0.00337
            19  uuu2uu2   0.15088 0.02276
            20  uuuu2u2  -0.15372 0.02363

      printout of CI-coefficients larger than  0.05 for root  4
      energy=  -13701.200519
      conf/sym  1111111     Coeff  Weight
             1  22uuuuu  -0.18893 0.03569
             2  2u2uuuu  -0.38358 0.14714
             3  u22uuuu   0.10373 0.01076
             4  2uu2uuu   0.20863 0.04353
             5  2uuu2uu   0.20098 0.04039
             6  2uuuu2u   0.06082 0.00370
             7  2uuuuu2  -0.08138 0.00662
             8  u2u2uuu  -0.20284 0.04114
             9  u2uu2uu   0.21842 0.04771
            11  u2uuuu2  -0.10784 0.01163
            12  uu22uuu  -0.29131 0.08486
            13  uu2u2uu  -0.39393 0.15518
            14  uu2uu2u  -0.25059 0.06279
            16  uuu22uu  -0.12869 0.01656
            17  uuu2u2u  -0.41026 0.16831
            18  uuuu22u  -0.09672 0.00935
            19  uuu2uu2  -0.20861 0.04352
            20  uuuu2u2   0.12426 0.01544
            21  uuuuu22  -0.23043 0.05310

      printout of CI-coefficients larger than  0.05 for root  5
      energy=  -13701.200417
      conf/sym  1111111     Coeff  Weight
             1  22uuuuu   0.27066 0.07326
             2  2u2uuuu   0.08248 0.00680
             3  u22uuuu  -0.06520 0.00425
             4  2uu2uuu   0.26646 0.07100
             5  2uuu2uu   0.19472 0.03792
             6  2uuuu2u   0.25187 0.06344
             7  2uuuuu2  -0.09788 0.00958
             9  u2uu2uu  -0.06830 0.00467
            10  u2uuu2u   0.07424 0.00551
            11  u2uuuu2  -0.12330 0.01520
            13  uu2u2uu   0.06461 0.00417
            14  uu2uu2u  -0.40407 0.16327
            15  uu2uuu2  -0.57100 0.32604
            16  uuu22uu   0.29812 0.08888
            18  uuuu22u   0.20863 0.04353
            19  uuu2uu2   0.05927 0.00351
            20  uuuu2u2   0.25115 0.06308
            21  uuuuu22   0.11677 0.01363

      printout of CI-coefficients larger than  0.05 for root  6
      energy=  -13701.199811
      conf/sym  1111111     Coeff  Weight
             2  2u2uuuu  -0.22644 0.05128
             3  u22uuuu  -0.19205 0.03688
             5  2uuu2uu   0.20494 0.04200
             6  2uuuu2u  -0.09374 0.00879
             7  2uuuuu2  -0.25869 0.06692
             8  u2u2uuu  -0.16840 0.02836
            10  u2uuu2u  -0.17792 0.03165
            11  u2uuuu2  -0.12154 0.01477
            12  uu22uuu   0.16465 0.02711
            13  uu2u2uu  -0.18247 0.03329
            14  uu2uu2u  -0.14043 0.01972
            16  uuu22uu   0.15350 0.02356
            17  uuu2u2u   0.45466 0.20672
            18  uuuu22u   0.15594 0.02432
            19  uuu2uu2  -0.08208 0.00674
            20  uuuu2u2  -0.57966 0.33601
            21  uuuuu22  -0.20361 0.04146

      printout of CI-coefficients larger than  0.05 for root  7
      energy=  -13701.199732
      conf/sym  1111111     Coeff  Weight
             1  22uuuuu  -0.14398 0.02073
             2  2u2uuuu  -0.13884 0.01928
             3  u22uuuu   0.09590 0.00920
             4  2uu2uuu  -0.20681 0.04277
             5  2uuu2uu  -0.19976 0.03990
             6  2uuuu2u  -0.30888 0.09541
             8  u2u2uuu  -0.28180 0.07941
             9  u2uu2uu  -0.37781 0.14274
            13  uu2u2uu  -0.17222 0.02966
            14  uu2uu2u  -0.16483 0.02717
            15  uu2uuu2   0.09508 0.00904
            16  uuu22uu   0.40256 0.16205
            17  uuu2u2u  -0.30487 0.09295
            18  uuuu22u   0.13940 0.01943
            19  uuu2uu2   0.12328 0.01520
            20  uuuu2u2  -0.05617 0.00315
            21  uuuuu22   0.43599 0.19009

      printout of CI-coefficients larger than  0.05 for root  8
      energy=  -13701.199560
      conf/sym  1111111     Coeff  Weight
             1  22uuuuu   0.19415 0.03769
             3  u22uuuu  -0.14145 0.02001
             4  2uu2uuu   0.47336 0.22407
             5  2uuu2uu  -0.33538 0.11248
             6  2uuuu2u  -0.07533 0.00567
             8  u2u2uuu  -0.05796 0.00336
             9  u2uu2uu   0.06484 0.00420
            10  u2uuu2u  -0.20973 0.04398
            11  u2uuuu2   0.12940 0.01674
            12  uu22uuu   0.06022 0.00363
            13  uu2u2uu   0.23298 0.05428
            14  uu2uu2u  -0.32988 0.10882
            15  uu2uuu2   0.47565 0.22624
            16  uuu22uu  -0.09059 0.00821
            18  uuuu22u   0.32808 0.10764
            19  uuu2uu2   0.09257 0.00857
            20  uuuu2u2   0.06810 0.00464
            21  uuuuu22  -0.08947 0.00800

      printout of CI-coefficients larger than  0.05 for root  9
      energy=  -13701.199458
      conf/sym  1111111     Coeff  Weight
             1  22uuuuu  -0.11344 0.01287
             3  u22uuuu  -0.15538 0.02414
             4  2uu2uuu  -0.06900 0.00476
             5  2uuu2uu  -0.30709 0.09430
             6  2uuuu2u   0.39763 0.15811
             7  2uuuuu2  -0.26308 0.06921
             8  u2u2uuu   0.06318 0.00399
             9  u2uu2uu  -0.14806 0.02192
            10  u2uuu2u   0.23049 0.05313
            11  u2uuuu2   0.22083 0.04876
            12  uu22uuu   0.44797 0.20068
            13  uu2u2uu  -0.42804 0.18322
            14  uu2uu2u   0.07281 0.00530
            16  uuu22uu  -0.10645 0.01133
            17  uuu2u2u  -0.12761 0.01628
            18  uuuu22u   0.13829 0.01913
            19  uuu2uu2   0.15566 0.02423
            20  uuuu2u2   0.06992 0.00489
            21  uuuuu22  -0.20832 0.04340

      printout of CI-coefficients larger than  0.05 for root 10
      energy=  -13701.198757
      conf/sym  1111111     Coeff  Weight
             1  22uuuuu   0.18366 0.03373
             2  2u2uuuu   0.14256 0.02032
             3  u22uuuu  -0.10297 0.01060
             5  2uuu2uu   0.38087 0.14506
             6  2uuuu2u  -0.12569 0.01580
             7  2uuuuu2  -0.13705 0.01878
             8  u2u2uuu  -0.14176 0.02010
            10  u2uuu2u  -0.35431 0.12554
            11  u2uuuu2   0.46298 0.21435
            12  uu22uuu  -0.12884 0.01660
            13  uu2u2uu  -0.17289 0.02989
            14  uu2uu2u   0.39471 0.15579
            16  uuu22uu   0.09160 0.00839
            17  uuu2u2u  -0.08279 0.00685
            18  uuuu22u   0.32824 0.10774
            20  uuuu2u2   0.24639 0.06071
            21  uuuuu22  -0.07044 0.00496

      printout of CI-coefficients larger than  0.05 for root 11
      energy=  -13701.198739
      conf/sym  1111111     Coeff  Weight
             2  2u2uuuu   0.06244 0.00390
             3  u22uuuu   0.28364 0.08045
             4  2uu2uuu  -0.07316 0.00535
             5  2uuu2uu  -0.06395 0.00409
             6  2uuuu2u   0.40894 0.16723
             7  2uuuuu2  -0.22166 0.04913
             9  u2uu2uu   0.50894 0.25902
            10  u2uuu2u  -0.21211 0.04499
            11  u2uuuu2  -0.06191 0.00383
            13  uu2u2uu  -0.16781 0.02816
            15  uu2uuu2   0.22479 0.05053
            16  uuu22uu   0.12680 0.01608
            17  uuu2u2u   0.19769 0.03908
            21  uuuuu22   0.49207 0.24213

      printout of CI-coefficients larger than  0.05 for root 12
      energy=  -13701.166916
      conf/sym  1111111     Coeff  Weight
             1  22uuuuu   0.29667 0.08801
             2  2u2uuuu  -0.07367 0.00543
             3  u22uuuu   0.12508 0.01564
             4  2uu2uuu  -0.06714 0.00451
             6  2uuuu2u   0.22401 0.05018
             7  2uuuuu2   0.42670 0.18207
             8  u2u2uuu   0.35561 0.12646
             9  u2uu2uu  -0.25325 0.06413
            10  u2uuu2u  -0.09786 0.00958
            11  u2uuuu2   0.14182 0.02011
            12  uu22uuu  -0.31560 0.09960
            13  uu2u2uu  -0.39340 0.15477
            14  uu2uu2u  -0.19351 0.03745
            15  uu2uuu2   0.16569 0.02745
            16  uuu22uu   0.13004 0.01691
            17  uuu2u2u   0.17010 0.02893
            18  uuuu22u  -0.06089 0.00371
            19  uuu2uu2   0.21316 0.04544
            20  uuuu2u2  -0.10367 0.01075
            21  uuuuu22  -0.09059 0.00821

      printout of CI-coefficients larger than  0.05 for root 13
      energy=  -13701.166536
      conf/sym  1111111     Coeff  Weight
             1  22uuuuu   0.25852 0.06684
             2  2u2uuuu  -0.19819 0.03928
             4  2uu2uuu   0.37747 0.14249
             5  2uuu2uu  -0.16440 0.02703
             6  2uuuu2u   0.05750 0.00331
             7  2uuuuu2  -0.17646 0.03114
             8  u2u2uuu  -0.26269 0.06901
             9  u2uu2uu  -0.25433 0.06468
            11  u2uuuu2  -0.32080 0.10291
            12  uu22uuu  -0.12171 0.01481
            13  uu2u2uu  -0.07126 0.00508
            14  uu2uu2u   0.47474 0.22538
            16  uuu22uu   0.09125 0.00833
            17  uuu2u2u   0.14226 0.02024
            18  uuuu22u  -0.31828 0.10130
            19  uuu2uu2   0.24070 0.05794
            20  uuuu2u2   0.13506 0.01824

      printout of CI-coefficients larger than  0.05 for root 14
      energy=  -13701.166015
      conf/sym  1111111     Coeff  Weight
             1  22uuuuu   0.11831 0.01400
             2  2u2uuuu   0.21993 0.04837
             3  u22uuuu  -0.31893 0.10172
             4  2uu2uuu   0.24770 0.06135
             5  2uuu2uu   0.32162 0.10344
             6  2uuuu2u  -0.24432 0.05969
             7  2uuuuu2   0.09349 0.00874
             8  u2u2uuu   0.27122 0.07356
             9  u2uu2uu   0.17629 0.03108
            10  u2uuu2u   0.12955 0.01678
            11  u2uuuu2  -0.27504 0.07565
            12  uu22uuu   0.23125 0.05348
            13  uu2u2uu  -0.31396 0.09857
            14  uu2uu2u   0.08864 0.00786
            15  uu2uuu2   0.16268 0.02647
            16  uuu22uu  -0.06601 0.00436
            17  uuu2u2u  -0.26245 0.06888
            19  uuu2uu2   0.20832 0.04340
            20  uuuu2u2  -0.15541 0.02415
            21  uuuuu22   0.27873 0.07769

      printout of CI-coefficients larger than  0.05 for root 15
      energy=  -13701.165927
      conf/sym  1111111     Coeff  Weight
             1  22uuuuu  -0.23736 0.05634
             2  2u2uuuu  -0.18593 0.03457
             3  u22uuuu   0.25979 0.06749
             4  2uu2uuu   0.16364 0.02678
             6  2uuuu2u  -0.25941 0.06729
             7  2uuuuu2   0.29874 0.08925
             8  u2u2uuu   0.18291 0.03346
            11  u2uuuu2  -0.21547 0.04643
            12  uu22uuu   0.27064 0.07324
            13  uu2u2uu  -0.21452 0.04602
            14  uu2uu2u   0.14428 0.02082
            16  uuu22uu   0.06427 0.00413
            17  uuu2u2u   0.34558 0.11943
            18  uuuu22u   0.33818 0.11437
            19  uuu2uu2  -0.18777 0.03526
            20  uuuu2u2   0.40099 0.16079

      printout of CI-coefficients larger than  0.05 for root 16
      energy=  -13701.165854
      conf/sym  1111111     Coeff  Weight
             1  22uuuuu   0.16099 0.02592
             2  2u2uuuu  -0.36021 0.12975
             3  u22uuuu  -0.13747 0.01890
             4  2uu2uuu  -0.21296 0.04535
             6  2uuuu2u  -0.29694 0.08817
             8  u2u2uuu  -0.07098 0.00504
             9  u2uu2uu   0.18839 0.03549
            10  u2uuu2u  -0.08044 0.00647
            11  u2uuuu2   0.25142 0.06321
            12  uu22uuu   0.19012 0.03614
            13  uu2u2uu  -0.06498 0.00422
            14  uu2uu2u  -0.24074 0.05796
            15  uu2uuu2  -0.13599 0.01849
            16  uuu22uu  -0.27506 0.07566
            17  uuu2u2u   0.22807 0.05201
            18  uuuu22u  -0.31339 0.09821
            19  uuu2uu2   0.34106 0.11632
            20  uuuu2u2   0.31172 0.09717
            21  uuuuu22   0.15049 0.02265

      printout of CI-coefficients larger than  0.05 for root 17
      energy=  -13701.165684
      conf/sym  1111111     Coeff  Weight
             2  2u2uuuu   0.20885 0.04362
             3  u22uuuu   0.06976 0.00487
             5  2uuu2uu  -0.44666 0.19951
             6  2uuuu2u  -0.17223 0.02966
             7  2uuuuu2   0.11484 0.01319
             9  u2uu2uu   0.21949 0.04818
            10  u2uuu2u  -0.50663 0.25668
            11  u2uuuu2  -0.13940 0.01943
            13  uu2u2uu  -0.20571 0.04232
            14  uu2uu2u   0.05054 0.00255
            15  uu2uuu2  -0.47425 0.22491
            16  uuu22uu  -0.11193 0.01253
            17  uuu2u2u  -0.17275 0.02984
            19  uuu2uu2   0.12841 0.01649
            20  uuuu2u2  -0.17937 0.03217
            21  uuuuu22  -0.14021 0.01966

      printout of CI-coefficients larger than  0.05 for root 18
      energy=  -13701.165579
      conf/sym  1111111     Coeff  Weight
             1  22uuuuu   0.26995 0.07287
             2  2u2uuuu   0.17358 0.03013
             3  u22uuuu   0.33559 0.11262
             4  2uu2uuu  -0.15159 0.02298
             6  2uuuu2u  -0.22298 0.04972
             7  2uuuuu2  -0.07908 0.00625
             8  u2u2uuu  -0.07181 0.00516
             9  u2uu2uu   0.30691 0.09419
            10  u2uuu2u   0.21856 0.04777
            12  uu22uuu   0.19598 0.03841
            14  uu2uu2u  -0.05235 0.00274
            15  uu2uuu2   0.15563 0.02422
            16  uuu22uu   0.46105 0.21257
            17  uuu2u2u  -0.09737 0.00948
            18  uuuu22u  -0.13555 0.01837
            19  uuu2uu2   0.15914 0.02533
            20  uuuu2u2   0.06273 0.00394
            21  uuuuu22  -0.47159 0.22240

      printout of CI-coefficients larger than  0.05 for root 19
      energy=  -13701.042689
      conf/sym  1111111     Coeff  Weight
             1  22uuuuu   0.18012 0.03244
             3  u22uuuu   0.11169 0.01247
             4  2uu2uuu   0.38008 0.14446
             5  2uuu2uu  -0.14189 0.02013
             6  2uuuu2u  -0.08521 0.00726
             7  2uuuuu2   0.15744 0.02479
             8  u2u2uuu  -0.08103 0.00657
            10  u2uuu2u   0.13584 0.01845
            11  u2uuuu2   0.48122 0.23157
            12  uu22uuu   0.20175 0.04070
            13  uu2u2uu  -0.13921 0.01938
            15  uu2uuu2  -0.14608 0.02134
            16  uuu22uu   0.11514 0.01326
            18  uuuu22u  -0.31410 0.09866
            19  uuu2uu2  -0.46763 0.21867
            20  uuuu2u2  -0.21931 0.04810
            21  uuuuu22   0.19265 0.03712

      printout of CI-coefficients larger than  0.05 for root 20
      energy=  -13701.041685
      conf/sym  1111111     Coeff  Weight
             1  22uuuuu  -0.10992 0.01208
             2  2u2uuuu  -0.49073 0.24081
             3  u22uuuu  -0.23171 0.05369
             6  2uuuu2u   0.25099 0.06300
             7  2uuuuu2   0.30897 0.09546
             8  u2u2uuu   0.13617 0.01854
             9  u2uu2uu   0.20790 0.04322
            10  u2uuu2u  -0.22185 0.04922
            11  u2uuuu2   0.06380 0.00407
            12  uu22uuu   0.22008 0.04843
            13  uu2u2uu   0.28335 0.08029
            14  uu2uu2u   0.22816 0.05206
            16  uuu22uu   0.38267 0.14644
            17  uuu2u2u  -0.26146 0.06836
            19  uuu2uu2   0.10935 0.01196
            20  uuuu2u2  -0.07050 0.00497

      printout of CI-coefficients larger than  0.05 for root 21
      energy=  -13701.040695
      conf/sym  1111111     Coeff  Weight
             1  22uuuuu   0.28916 0.08361
             2  2u2uuuu  -0.33542 0.11251
             3  u22uuuu   0.23011 0.05295
             5  2uuu2uu  -0.05274 0.00278
             6  2uuuu2u  -0.06101 0.00372
             9  u2uu2uu   0.19259 0.03709
            10  u2uuu2u   0.43450 0.18879
            11  u2uuuu2   0.07728 0.00597
            12  uu22uuu  -0.19071 0.03637
            13  uu2u2uu   0.06036 0.00364
            14  uu2uu2u   0.21402 0.04580
            15  uu2uuu2  -0.16269 0.02647
            16  uuu22uu  -0.22172 0.04916
            17  uuu2u2u  -0.07017 0.00492
            18  uuuu22u   0.47043 0.22130
            19  uuu2uu2   0.18959 0.03595
            20  uuuu2u2  -0.27701 0.07673
            21  uuuuu22   0.09885 0.00977

      Natural orbitals and occupation numbers for root  1
      sym 1:   1.425089   1.567418   1.007493   1.567418   1.007493   1.000000   1.425089

      Natural orbitals and occupation numbers for root  2
      sym 1:   1.482879   1.516813   1.000308   1.516813   1.000000   1.000308   1.482879

      Natural orbitals and occupation numbers for root  3
      sym 1:   1.000000   1.609921   1.609921   1.368589   1.368589   1.021490   1.021490

      Natural orbitals and occupation numbers for root  4
      sym 1:   1.000000   1.190511   1.675554   1.675554   1.190511   1.133935   1.133935

      Natural orbitals and occupation numbers for root  5
      sym 1:   1.075182   1.075182   1.650953   1.273865   1.000000   1.273865   1.650953

      Natural orbitals and occupation numbers for root  6
      sym 1:   1.223236   1.000000   1.122796   1.122796   1.653968   1.223236   1.653968

      Natural orbitals and occupation numbers for root  7
      sym 1:   1.000000   1.534168   1.003524   1.462308   1.534168   1.462308   1.003524

      Natural orbitals and occupation numbers for root  8
      sym 1:   1.605895   1.000000   1.605895   1.343720   1.343720   1.050385   1.050385

      Natural orbitals and occupation numbers for root  9
      sym 1:   1.370588   1.037109   1.592303   1.037109   1.592303   1.370588   1.000000

      Natural orbitals and occupation numbers for root 10
      sym 1:   1.012825   1.433284   1.000000   1.012825   1.553892   1.553892   1.433284

      Natural orbitals and occupation numbers for root 11
      sym 1:   1.029223   1.392306   1.000000   1.029223   1.392306   1.578471   1.578471

      Natural orbitals and occupation numbers for root 12
      sym 1:   1.328336   1.319822   1.351842   1.319822   1.351842   1.000000   1.328336

      Natural orbitals and occupation numbers for root 13
      sym 1:   1.308062   1.324780   1.367158   1.308062   1.000000   1.367158   1.324780

      Natural orbitals and occupation numbers for root 14
      sym 1:   1.327852   1.311246   1.360903   1.311246   1.000000   1.360903   1.327852

      Natural orbitals and occupation numbers for root 15
      sym 1:   1.349726   1.000000   1.319449   1.319449   1.330825   1.330825   1.349726

      Natural orbitals and occupation numbers for root 16
      sym 1:   1.358045   1.000000   1.313181   1.313181   1.358045   1.328773   1.328773

      Natural orbitals and occupation numbers for root 17
      sym 1:   1.314704   1.338527   1.346768   1.000000   1.346768   1.338527   1.314704

      Natural orbitals and occupation numbers for root 18
      sym 1:   1.000000   1.340013   1.298705   1.298705   1.340013   1.361282   1.361282

      Natural orbitals and occupation numbers for root 19
      sym 1:   1.288058   1.073647   1.000000   1.638295   1.288058   1.073647   1.638295

      Natural orbitals and occupation numbers for root 20
      sym 1:   1.640848   1.000000   1.640848   1.287550   1.071602   1.287550   1.071602

      Natural orbitals and occupation numbers for root 21
      sym 1:   1.000000   1.652172   1.278650   1.278650   1.069178   1.652172   1.069178

      ************************************************************************************************************************
      *                                                                                                                      *
      *                                                    Final results                                                     *
      *                                                                                                                      *
      ************************************************************************************************************************


++    Wave function specifications:
      -----------------------------

      Number of closed shell electrons         298
      Number of electrons in active shells       9
      Max number of holes in RAS1 space          0
      Max nr of electrons in RAS3 space          0
      Number of inactive orbitals              149
      Number of active orbitals                  7
      Number of secondary orbitals             597
      Spin quantum number                      2.5
      State symmetry                             1
--

++    Orbital specifications:
      -----------------------

      Symmetry species                           1
                                                 a
      Frozen orbitals                            0
      Inactive orbitals                        149
      Active orbitals                            7
      RAS1 orbitals                              0
      RAS2 orbitals                              7
      RAS3 orbitals                              0
      Secondary orbitals                       597
      Deleted orbitals                           0
      Number of basis functions                753
--

++    CI expansion specifications:
      ----------------------------

      Number of CSFs                            21
      Number of determinants                    21
      Number of root(s) required                21
      CI roots used                              1     2     3     4     5     6     7     8     9    10
                                                11    12    13    14    15    16    17    18    19    20
                                                21
      weights                                0.048 0.048 0.048 0.048 0.048 0.048 0.048 0.048 0.048 0.048
                                             0.048 0.048 0.048 0.048 0.048 0.048 0.048 0.048 0.048 0.048
                                             0.048
      highest root included in the CI           21
      Root passed to geometry opt.              21
--

++    Final optimization conditions:
      ------------------------------

      Average CI energy                          -13701.16610169
      RASSCF energy for state 21                 -13701.04069514
      Super-CI energy                                -0.00000000
      RASSCF energy change                           -0.00000000
      Max change in MO coefficients              -0.501E-05
      Max non-diagonal density matrix element    -0.642E-05
      Maximum BLB matrix element                 -0.381E-05
      (orbital pair  56, 738 in symmetry   1)
      Norm of electronic gradient            0.383E+00
--


      Final state energy(ies):
      ------------------------

::    RASSCF root number  1 Total energy: -13701.20142897
::    RASSCF root number  2 Total energy: -13701.20142706
::    RASSCF root number  3 Total energy: -13701.20070593
::    RASSCF root number  4 Total energy: -13701.20051862
::    RASSCF root number  5 Total energy: -13701.20041722
::    RASSCF root number  6 Total energy: -13701.19981053
::    RASSCF root number  7 Total energy: -13701.19973245
::    RASSCF root number  8 Total energy: -13701.19955994
::    RASSCF root number  9 Total energy: -13701.19945835
::    RASSCF root number 10 Total energy: -13701.19875670
::    RASSCF root number 11 Total energy: -13701.19873853
::    RASSCF root number 12 Total energy: -13701.16691621
::    RASSCF root number 13 Total energy: -13701.16653619
::    RASSCF root number 14 Total energy: -13701.16601452
::    RASSCF root number 15 Total energy: -13701.16592721
::    RASSCF root number 16 Total energy: -13701.16585411
::    RASSCF root number 17 Total energy: -13701.16568401
::    RASSCF root number 18 Total energy: -13701.16557926
::    RASSCF root number 19 Total energy: -13701.04268930
::    RASSCF root number 20 Total energy: -13701.04168530
::    RASSCF root number 21 Total energy: -13701.04069514

++    Molecular orbitals:
      -------------------

      Pseudonatural active orbitals and approximate occupation numbers


      MOLECULAR ORBITALS FOR SYMMETRY SPECIES 1: a  

      INDEX  ENERGY  OCCUPATION COEFFICIENTS ...
          1-1983.9303    2.0000                                                                                                           
                 1 DY1    1s     ( 1.0000)
          2 -335.2443    2.0000                                                                                                           
                 2 DY1    2s     ( 1.0000)
          3 -298.0552    2.0000                                                                                                           
                 9 DY1    2px    ( 0.4247)  16 DY1    2py    ( 0.6506)  23 DY1    2pz    (-0.6296)
          4 -298.0551    2.0000                                                                                                           
                 9 DY1    2px    ( 0.8806)  16 DY1    2py    (-0.4583)  23 DY1    2pz    ( 0.1204)
          5 -298.0551    2.0000                                                                                                           
                 9 DY1    2px    ( 0.2102)  16 DY1    2py    ( 0.6055)  23 DY1    2pz    ( 0.7676)
          6  -76.7296    2.0000                                                                                                           
                 3 DY1    3s     ( 1.0000)
          7  -65.0079    2.0000                                                                                                           
                10 DY1    3px    ( 0.4377)  17 DY1    3py    ( 0.6687)  24 DY1    3pz    (-0.6011)
          8  -65.0078    2.0000                                                                                                           
                10 DY1    3px    ( 0.8852)  17 DY1    3py    (-0.4377)  24 DY1    3pz    ( 0.1578)
          9  -65.0077    2.0000                                                                                                           
                10 DY1    3px    ( 0.1576)  17 DY1    3py    ( 0.6011)  24 DY1    3pz    ( 0.7835)
         10  -49.5540    2.0000                                                                                                           
                30 DY1    3d2-   (-0.7176)  35 DY1    3d1-   ( 0.4063)  40 DY1    3d0    ( 0.4659)  45 DY1    3d1+   ( 0.3004)
                50 DY1    3d2+   ( 0.1127)
         11  -49.5540    2.0000                                                                                                           
                30 DY1    3d2-   (-0.1568)  35 DY1    3d1-   (-0.6028)  45 DY1    3d1+   ( 0.5404)  50 DY1    3d2+   (-0.5612)
      
         12  -49.5538    2.0000                                                                                                           
                30 DY1    3d2-   ( 0.6136)  35 DY1    3d1-   ( 0.1967)  40 DY1    3d0    ( 0.2854)  45 DY1    3d1+   ( 0.6515)
                50 DY1    3d2+   ( 0.2810)
         13  -49.5537    2.0000                                                                                                           
                30 DY1    3d2-   (-0.1525)  35 DY1    3d1-   ( 0.3742)  40 DY1    3d0    (-0.8130)  45 DY1    3d1+   ( 0.4143)
      
         14  -49.5537    2.0000                                                                                                           
                30 DY1    3d2-   (-0.2465)  35 DY1    3d1-   (-0.5412)  40 DY1    3d0    (-0.1883)  45 DY1    3d1+   ( 0.1469)
                50 DY1    3d2+   ( 0.7677)
         15  -20.5256    2.0000                                                                                                           
               315 O4     1s     ( 0.9998)
         16  -20.5212    2.0000                                                                                                           
               255 O2     1s     (-0.9998)
         17  -20.5208    2.0000                                                                                                           
               345 O5     1s     ( 0.9998)
         18  -20.5197    2.0000                                                                                                           
               285 O3     1s     (-0.9998)
         19  -20.5169    2.0000                                                                                                           
               225 O1     1s     (-0.9998)
         20  -20.5104    2.0000                                                                                                           
               375 O6     1s     ( 0.9998)
         21  -16.2481    2.0000                                                                                                           
                 4 DY1    4s     ( 0.9995)
         22  -15.6108    2.0000                                                                                                           
               105 N1     1s     (-1.0003)
         23  -15.6051    2.0000                                                                                                           
               195 N4     1s     ( 1.0003)
         24  -15.5988    2.0000                                                                                                           
               135 N2     1s     (-0.9999)
         25  -15.5943    2.0000                                                                                                           
               165 N3     1s     ( 0.9999)
         26  -12.2716    2.0000                                                                                                           
                11 DY1    4px    ( 0.5483)  18 DY1    4py    ( 0.6223)  25 DY1    4pz    (-0.5586)
         27  -12.2713    2.0000                                                                                                           
                11 DY1    4px    ( 0.8299)  18 DY1    4py    (-0.4870)  25 DY1    4pz    ( 0.2721)
         28  -12.2710    2.0000                                                                                                           
                11 DY1    4px    ( 0.1027)  18 DY1    4py    ( 0.6128)  25 DY1    4pz    ( 0.7835)
         29  -11.3499    2.0000                                                                                                           
               405 C1     1s     ( 0.9970)
         30  -11.3450    2.0000                                                                                                           
               433 C3     1s     ( 0.9969)
         31  -11.3146    2.0000                                                                                                           
               615 C16    1s     ( 0.9999)
         32  -11.3126    2.0000                                                                                                           
               531 C10    1s     ( 0.9999)
         33  -11.3109    2.0000                                                                                                           
               629 C17    1s     (-0.9999)
         34  -11.3069    2.0000                                                                                                           
               559 C12    1s     (-0.9999)
         35  -11.3069    2.0000                                                                                                           
               489 C7     1s     (-1.0000)
         36  -11.3025    2.0000                                                                                                           
               461 C5     1s     ( 0.9999)
         37  -11.3010    2.0000                                                                                                           
               503 C8     1s     ( 0.9996)
         38  -11.3007    2.0000                                                                                                           
               447 C4     1s     ( 0.9999)
         39  -11.2958    2.0000                                                                                                           
               601 C15    1s     ( 0.9996)
         40  -11.2948    2.0000                                                                                                           
               419 C2     1s     (-0.9998)
         41  -11.2452    2.0000                                                                                                           
               517 C9     1s     (-0.9988)
         42  -11.2394    2.0000                                                                                                           
               587 C14    1s     (-0.9988)
         43  -11.1762    2.0000                                                                                                           
               671 C20    1s     ( 0.9988)
         44  -11.1750    2.0000                                                                                                           
               657 C19    1s     ( 0.9988)
         45  -11.1744    2.0000                                                                                                           
               699 C22    1s     ( 0.9988)
         46  -11.1740    2.0000                                                                                                           
               713 C23    1s     ( 0.9988)
         47  -11.1704    2.0000                                                                                                           
               643 C18    1s     ( 0.9988)
         48  -11.1640    2.0000                                                                                                           
               545 C11    1s     (-0.9990)
         49  -11.1630    2.0000                                                                                                           
               573 C13    1s     ( 0.9988)
         50  -11.1574    2.0000                                                                                                           
               685 C21    1s     (-0.9990)
         51  -11.1514    2.0000                                                                                                           
               475 C6     1s     ( 0.9990)
         52   -6.6584    2.0000                                                                                                           
                31 DY1    4d2-   (-0.7782)  36 DY1    4d1-   ( 0.2129)  41 DY1    4d0    ( 0.3025)  46 DY1    4d1+   ( 0.5016)
      
         53   -6.6583    2.0000                                                                                                           
                36 DY1    4d1-   ( 0.6239)  46 DY1    4d1+   (-0.2653)  51 DY1    4d2+   ( 0.7256)
         54   -6.6580    2.0000                                                                                                           
                31 DY1    4d2-   ( 0.1841)  36 DY1    4d1-   ( 0.2433)  41 DY1    4d0    (-0.7255)  46 DY1    4d1+   ( 0.6163)
      
         55   -6.6578    2.0000                                                                                                           
                31 DY1    4d2-   ( 0.5253)  41 DY1    4d0    ( 0.5675)  46 DY1    4d1+   ( 0.5350)  51 DY1    4d2+   ( 0.3390)
      
         56   -6.6578    2.0000                                                                                                           
                31 DY1    4d2-   (-0.2738)  36 DY1    4d1-   (-0.7109)  41 DY1    4d0    (-0.2357)  46 DY1    4d1+   ( 0.1090)
                51 DY1    4d2+   ( 0.5934)
         57   -2.2804    2.0000                                                                                                           
                 5 DY1    5s     ( 0.9804)
         58   -1.3719    2.0000                                                                                                           
                19 DY1    5py    ( 0.1023)  26 DY1    5pz    ( 0.2250) 226 O1     2s     ( 0.2725) 256 O2     2s     (-0.2928)
               316 O4     2s     (-0.4913) 346 O5     2s     ( 0.2353) 532 C10    2s     (-0.1256) 560 C12    2s     ( 0.1104)
               616 C16    2s     (-0.2081) 630 C17    2s     ( 0.1047)
         59   -1.3636    2.0000                                                                                                           
                19 DY1    5py    (-0.1592)  26 DY1    5pz    ( 0.1103) 226 O1     2s     ( 0.2192) 256 O2     2s     ( 0.2231)
               286 O3     2s     (-0.3343) 316 O4     2s     ( 0.1849) 346 O5     2s     ( 0.3847) 376 O6     2s     (-0.1533)
               406 C1     2s     ( 0.1255) 434 C3     2s     ( 0.1111) 490 C7     2s     (-0.1474) 630 C17    2s     ( 0.1573)
      
         60   -1.3606    2.0000                                                                                                           
                19 DY1    5py    ( 0.1289) 226 O1     2s     ( 0.3081) 286 O3     2s     ( 0.4967) 316 O4     2s     ( 0.2009)
               346 O5     2s     ( 0.1554) 376 O6     2s     ( 0.2298) 490 C7     2s     ( 0.2034) 560 C12    2s     ( 0.1287)
      
         61   -1.3574    2.0000                                                                                                           
                12 DY1    5px    (-0.1203) 106 N1     2s     ( 0.1607) 136 N2     2s     ( 0.1321) 166 N3     2s     ( 0.1349)
               196 N4     2s     ( 0.1688) 256 O2     2s     (-0.2265) 346 O5     2s     (-0.2340) 376 O6     2s     (-0.1220)
               406 C1     2s     ( 0.2903) 420 C2     2s     ( 0.1413) 434 C3     2s     ( 0.3080) 462 C5     2s     ( 0.1305)
               504 C8     2s     ( 0.1316) 602 C15    2s     ( 0.1361)
         62   -1.3502    2.0000                                                                                                           
                12 DY1    5px    ( 0.1902) 226 O1     2s     (-0.2837) 256 O2     2s     ( 0.3982) 316 O4     2s     (-0.3455)
               346 O5     2s     ( 0.1614) 376 O6     2s     ( 0.2823) 406 C1     2s     ( 0.1190) 448 C4     2s     ( 0.1119)
               532 C10    2s     ( 0.1562) 560 C12    2s     (-0.1229) 616 C16    2s     (-0.1506)
         63   -1.3417    2.0000                                                                                                           
               226 O1     2s     (-0.4293) 256 O2     2s     (-0.3450) 316 O4     2s     ( 0.1788) 346 O5     2s     ( 0.4195)
               532 C10    2s     (-0.1610) 560 C12    2s     (-0.1854) 630 C17    2s     ( 0.1901)
         64   -1.3346    2.0000                                                                                                           
               256 O2     2s     ( 0.1879) 286 O3     2s     ( 0.3560) 316 O4     2s     (-0.1434) 376 O6     2s     (-0.5719)
               448 C4     2s     (-0.2401) 490 C7     2s     ( 0.1578)
         65   -1.3261    2.0000                                                                                                           
[...]
  38      0.192753315488     0.962129055136     0.192753315488     0.005981985059
  39     -0.192753315488     0.962129055136     0.192753315488     0.005981985059
  40      0.192753315488    -0.962129055136     0.192753315488     0.005981985059
  41     -0.192753315488    -0.962129055136     0.192753315488     0.005981985059
  42      0.962129055136     0.192753315488     0.192753315488     0.005981985059
  43     -0.962129055136     0.192753315488     0.192753315488     0.005981985059
  44      0.962129055136    -0.192753315488     0.192753315488     0.005981985059
  45     -0.962129055136    -0.192753315488     0.192753315488     0.005981985059
  46      0.693035796133     0.693035796133     0.198501311223     0.005964341288
  47     -0.693035796133     0.693035796133     0.198501311223     0.005964341288
  48      0.693035796133    -0.693035796133     0.198501311223     0.005964341288
  49     -0.693035796133    -0.693035796133     0.198501311223     0.005964341288
  50      0.693035796133     0.198501311223     0.693035796133     0.005964341288
  51     -0.693035796133     0.198501311223     0.693035796133     0.005964341288
  52      0.693035796133    -0.198501311223     0.693035796133     0.005964341288
  53     -0.693035796133    -0.198501311223     0.693035796133     0.005964341288
  54      0.198501311223     0.693035796133     0.693035796133     0.005964341288
  55     -0.198501311223     0.693035796133     0.693035796133     0.005964341288
  56      0.198501311223    -0.693035796133     0.693035796133     0.005964341288
  57     -0.198501311223    -0.693035796133     0.693035796133     0.005964341288
  58      0.360830211552     0.360830211552     0.860001812128     0.005443128475
  59     -0.360830211552     0.360830211552     0.860001812128     0.005443128475
  60      0.360830211552    -0.360830211552     0.860001812128     0.005443128475
  61     -0.360830211552    -0.360830211552     0.860001812128     0.005443128475
  62      0.360830211552     0.860001812128     0.360830211552     0.005443128475
  63     -0.360830211552     0.860001812128     0.360830211552     0.005443128475
  64      0.360830211552    -0.860001812128     0.360830211552     0.005443128475
  65     -0.360830211552    -0.860001812128     0.360830211552     0.005443128475
  66      0.860001812128     0.360830211552     0.360830211552     0.005443128475
  67     -0.860001812128     0.360830211552     0.360830211552     0.005443128475
  68      0.860001812128    -0.360830211552     0.360830211552     0.005443128475
  69     -0.860001812128    -0.360830211552     0.360830211552     0.005443128475
  70      0.649848616150     0.649848616150     0.394199888606     0.006067027592
  71     -0.649848616150     0.649848616150     0.394199888606     0.006067027592
  72      0.649848616150    -0.649848616150     0.394199888606     0.006067027592
  73     -0.649848616150    -0.649848616150     0.394199888606     0.006067027592
  74      0.649848616150     0.394199888606     0.649848616150     0.006067027592
  75     -0.649848616150     0.394199888606     0.649848616150     0.006067027592
  76      0.649848616150    -0.394199888606     0.649848616150     0.006067027592
  77     -0.649848616150    -0.394199888606     0.649848616150     0.006067027592
  78      0.394199888606     0.649848616150     0.649848616150     0.006067027592
  79     -0.394199888606     0.649848616150     0.649848616150     0.006067027592
  80      0.394199888606    -0.649848616150     0.649848616150     0.006067027592
  81     -0.394199888606    -0.649848616150     0.649848616150     0.006067027592
  82      0.193294501323     0.981140782843     0.000000000000     0.003007949555
  83     -0.193294501323     0.981140782843     0.000000000000     0.003007949555
  84      0.193294501323    -0.981140782843     0.000000000000     0.003007949555
  85     -0.193294501323    -0.981140782843     0.000000000000     0.003007949555
  86      0.981140782843     0.193294501323     0.000000000000     0.003007949555
  87     -0.981140782843     0.193294501323     0.000000000000     0.003007949555
  88      0.981140782843    -0.193294501323     0.000000000000     0.003007949555
  89     -0.981140782843    -0.193294501323     0.000000000000     0.003007949555
  90      0.193294501323     0.000000000000     0.981140782843     0.006015899110
  91     -0.193294501323     0.000000000000     0.981140782843     0.006015899110
  92      0.981140782843     0.000000000000     0.193294501323     0.006015899110
  93     -0.981140782843     0.000000000000     0.193294501323     0.006015899110
  94      0.000000000000     0.193294501323     0.981140782843     0.006015899110
  95      0.000000000000    -0.193294501323     0.981140782843     0.006015899110
  96      0.000000000000     0.981140782843     0.193294501323     0.006015899110
  97      0.000000000000    -0.981140782843     0.193294501323     0.006015899110
  98      0.380049491990     0.924966152699     0.000000000000     0.002881964603
  99     -0.380049491990     0.924966152699     0.000000000000     0.002881964603
 100      0.380049491990    -0.924966152699     0.000000000000     0.002881964603
 101     -0.380049491990    -0.924966152699     0.000000000000     0.002881964603
 102      0.924966152699     0.380049491990     0.000000000000     0.002881964603
 103     -0.924966152699     0.380049491990     0.000000000000     0.002881964603
 104      0.924966152699    -0.380049491990     0.000000000000     0.002881964603
 105     -0.924966152699    -0.380049491990     0.000000000000     0.002881964603
 106      0.380049491990     0.000000000000     0.924966152699     0.005763929206
 107     -0.380049491990     0.000000000000     0.924966152699     0.005763929206
 108      0.924966152699     0.000000000000     0.380049491990     0.005763929206
 109     -0.924966152699     0.000000000000     0.380049491990     0.005763929206
 110      0.000000000000     0.380049491990     0.924966152699     0.005763929206
 111      0.000000000000    -0.380049491990     0.924966152699     0.005763929206
 112      0.000000000000     0.924966152699     0.380049491990     0.005763929206
 113      0.000000000000    -0.924966152699     0.380049491990     0.005763929206
 114      0.289955882550     0.793453785658     0.535123047718     0.005916715253
 115     -0.289955882550     0.793453785658     0.535123047718     0.005916715253
 116      0.289955882550    -0.793453785658     0.535123047718     0.005916715253
 117     -0.289955882550    -0.793453785658     0.535123047718     0.005916715253
 118      0.289955882550     0.535123047718     0.793453785658     0.005916715253
 119     -0.289955882550     0.535123047718     0.793453785658     0.005916715253
 120      0.289955882550    -0.535123047718     0.793453785658     0.005916715253
 121     -0.289955882550    -0.535123047718     0.793453785658     0.005916715253
 122      0.793453785658     0.289955882550     0.535123047718     0.005916715253
 123     -0.793453785658     0.289955882550     0.535123047718     0.005916715253
 124      0.793453785658    -0.289955882550     0.535123047718     0.005916715253
 125     -0.793453785658    -0.289955882550     0.535123047718     0.005916715253
 126      0.793453785658     0.535123047718     0.289955882550     0.005916715253
 127     -0.793453785658     0.535123047718     0.289955882550     0.005916715253
 128      0.793453785658    -0.535123047718     0.289955882550     0.005916715253
 129     -0.793453785658    -0.535123047718     0.289955882550     0.005916715253
 130      0.535123047718     0.289955882550     0.793453785658     0.005916715253
 131     -0.535123047718     0.289955882550     0.793453785658     0.005916715253
 132      0.535123047718    -0.289955882550     0.793453785658     0.005916715253
 133     -0.535123047718    -0.289955882550     0.793453785658     0.005916715253
 134      0.535123047718     0.793453785658     0.289955882550     0.005916715253
 135     -0.535123047718     0.793453785658     0.289955882550     0.005916715253
 136      0.535123047718    -0.793453785658     0.289955882550     0.005916715253
 137     -0.535123047718    -0.793453785658     0.289955882550     0.005916715253
 138      0.096841214551     0.828080150669     0.552182074349     0.006072040053
 139     -0.096841214551     0.828080150669     0.552182074349     0.006072040053
 140      0.096841214551    -0.828080150669     0.552182074349     0.006072040053
 141     -0.096841214551    -0.828080150669     0.552182074349     0.006072040053
 142      0.096841214551     0.552182074349     0.828080150669     0.006072040053
 143     -0.096841214551     0.552182074349     0.828080150669     0.006072040053
 144      0.096841214551    -0.552182074349     0.828080150669     0.006072040053
 145     -0.096841214551    -0.552182074349     0.828080150669     0.006072040053
 146      0.828080150669     0.096841214551     0.552182074349     0.006072040053
 147     -0.828080150669     0.096841214551     0.552182074349     0.006072040053
 148      0.828080150669    -0.096841214551     0.552182074349     0.006072040053
 149     -0.828080150669    -0.096841214551     0.552182074349     0.006072040053
 150      0.828080150669     0.552182074349     0.096841214551     0.006072040053
 151     -0.828080150669     0.552182074349     0.096841214551     0.006072040053
 152      0.828080150669    -0.552182074349     0.096841214551     0.006072040053
 153     -0.828080150669    -0.552182074349     0.096841214551     0.006072040053
 154      0.552182074349     0.096841214551     0.828080150669     0.006072040053
 155     -0.552182074349     0.096841214551     0.828080150669     0.006072040053
 156      0.552182074349    -0.096841214551     0.828080150669     0.006072040053
 157     -0.552182074349    -0.096841214551     0.828080150669     0.006072040053
 158      0.552182074349     0.828080150669     0.096841214551     0.006072040053
 159     -0.552182074349     0.828080150669     0.096841214551     0.006072040053
 160      0.552182074349    -0.828080150669     0.096841214551     0.006072040053
 161     -0.552182074349    -0.828080150669     0.096841214551     0.006072040053
 162      0.183343464704     0.907465826531     0.378009189874     0.005664374808
 163     -0.183343464704     0.907465826531     0.378009189874     0.005664374808
 164      0.183343464704    -0.907465826531     0.378009189874     0.005664374808
 165     -0.183343464704    -0.907465826531     0.378009189874     0.005664374808
 166      0.183343464704     0.378009189874     0.907465826531     0.005664374808
 167     -0.183343464704     0.378009189874     0.907465826531     0.005664374808
 168      0.183343464704    -0.378009189874     0.907465826531     0.005664374808
 169     -0.183343464704    -0.378009189874     0.907465826531     0.005664374808
 170      0.907465826531     0.183343464704     0.378009189874     0.005664374808
 171     -0.907465826531     0.183343464704     0.378009189874     0.005664374808
 172      0.907465826531    -0.183343464704     0.378009189874     0.005664374808
 173     -0.907465826531    -0.183343464704     0.378009189874     0.005664374808
 174      0.907465826531     0.378009189874     0.183343464704     0.005664374808
 175     -0.907465826531     0.378009189874     0.183343464704     0.005664374808
 176      0.907465826531    -0.378009189874     0.183343464704     0.005664374808
 177     -0.907465826531    -0.378009189874     0.183343464704     0.005664374808
 178      0.378009189874     0.183343464704     0.907465826531     0.005664374808
 179     -0.378009189874     0.183343464704     0.907465826531     0.005664374808
 180      0.378009189874    -0.183343464704     0.907465826531     0.005664374808
 181     -0.378009189874    -0.183343464704     0.907465826531     0.005664374808
 182      0.378009189874     0.907465826531     0.183343464704     0.005664374808
 183     -0.378009189874     0.907465826531     0.183343464704     0.005664374808
 184      0.378009189874    -0.907465826531     0.183343464704     0.005664374808
 185     -0.378009189874    -0.907465826531     0.183343464704     0.005664374808
  --------------------------------------------------------------------------------
  The cut-off energy for the exact diagonalization of the Zeeman Hamiltonian is:
  E =  1626.659963600 cm(-1).
  The exact diagonalization of the Zeeman Hamiltonian included  16 exchange states.
  The magnetization vector was not calculated.
  Computation of the Zeeman splitting was not requested.

                         HIGH-FIELD POWDER MAGNETIZATION
                              (Units: Bohr magneton)

-----------|---------------|---------------|---------------|---------------|---------------|
   H(T)    |STATISTICAL SUM|     1.900 K.  |     3.000 K.  |     5.000 K.  |     7.000 K.  |
-----------|---------------|---------------|---------------|---------------|---------------|
  0.000100 |     1.9998590 |  0.0011185886 |  0.0007099291 |  0.0004275825 |  0.0003065768 |
  0.100000 |     1.8684834 |  1.0930972395 |  0.7033244978 |  0.4261434951 |  0.3060510865 |
  0.200000 |     1.7542635 |  2.0511922175 |  1.3690455379 |  0.8438177894 |  0.6089788095 |
  0.300000 |     1.6550654 |  2.8069055467 |  1.9684920379 |  1.2453398204 |  0.9058113011 |
  0.400000 |     1.5689137 |  3.3639054863 |  2.4864168501 |  1.6244366703 |  1.1938630425 |
  0.500000 |     1.4940924 |  3.7607916949 |  2.9201473870 |  1.9766026699 |  1.4708396430 |
  0.600000 |     1.4291115 |  4.0409396568 |  3.2756583877 |  2.2991693484 |  1.7349045879 |
  0.700000 |     1.3726767 |  4.2398773293 |  3.5632790417 |  2.5911408540 |  1.9847062343 |
  0.800000 |     1.3236641 |  4.3832790518 |  3.7945047237 |  2.8528848002 |  2.2193688394 |
  0.900000 |     1.2810975 |  4.4887133834 |  3.9801617987 |  3.0857691819 |  2.4384551709 |
  1.000000 |     1.2441292 |  4.5679524710 |  4.1296012342 |  3.2918137954 |  2.6419099460 |
  1.100000 |     1.2120229 |  4.6288577956 |  4.2505080438 |  3.4733956660 |  2.8299932078 |
  1.200000 |     1.1841392 |  4.6767126368 |  4.3490151390 |  3.6330232071 |  3.0032113678 |
  1.300000 |     1.1599226 |  4.7151097604 |  4.4299338423 |  3.7731773837 |  3.1622516515 |
  1.400000 |     1.1388909 |  4.7465287965 |  4.4970040121 |  3.8962096867 |  3.3079236233 |
  1.500000 |     1.1206253 |  4.7727092419 |  4.5531210130 |  4.0042839721 |  3.4411096681 |
  1.600000 |     1.1047618 |  4.7948920526 |  4.6005253518 |  4.0993497795 |  3.5627249327 |
  1.700000 |     1.0909847 |  4.8139773852 |  4.6409542103 |  4.1831367936 |  3.6736862977 |
  1.800000 |     1.0790195 |  4.8306287628 |  4.6757594718 |  4.2571625301 |  3.7748894066 |
  1.900000 |     1.0686278 |  4.8453427816 |  4.7059982978 |  4.3227475547 |  3.8671925280 |
  2.000000 |     1.0596029 |  4.8584964334 |  4.7325020781 |  4.3810343509 |  3.9514059788 |
  2.100000 |     1.0517648 |  4.8703797145 |  4.7559287163 |  4.4330073193 |  4.0282859159 |
  2.200000 |     1.0449575 |  4.8812184328 |  4.7768022444 |  4.4795123690 |  4.0985314445 |
  2.300000 |     1.0390455 |  4.8911903957 |  4.7955428726 |  4.5212752281 |  4.1627841627 |
  2.400000 |     1.0339109 |  4.9004370631 |  4.8124898431 |  4.5589180466 |  4.2216294246 |
  2.500000 |     1.0294517 |  4.9090720505 |  4.8279188762 |  4.5929741379 |  4.2755987628 |
  2.600000 |     1.0255788 |  4.9171874120 |  4.8420555473 |  4.6239008788 |  4.3251730367 |
  2.700000 |     1.0222153 |  4.9248583401 |  4.8550855957 |  4.6520908789 |  4.3707859878 |
  2.800000 |     1.0192940 |  4.9321467190 |  4.8671629128 |  4.6778815780 |  4.4128279673 |
  2.900000 |     1.0167570 |  4.9391038402 |  4.8784157666 |  4.7015634487 |  4.4516496713 |
  3.000000 |     1.0145536 |  4.9457724972 |  4.8889516812 |  4.7233869784 |  4.4875657719 |
  3.100000 |     1.0126399 |  4.9521886157 |  4.8988612850 |  4.7435685975 |  4.5208583711 |
  3.200000 |     1.0109779 |  4.9583825336 |  4.9082213630 |  4.7622957039 |  4.5517802345 |
  3.300000 |     1.0095344 |  4.9643800124 |  4.9170972932 |  4.7797309182 |  4.5805577822 |
  3.400000 |     1.0082808 |  4.9702030433 |  4.9255450025 |  4.7960156839 |  4.6073938295 |
  3.500000 |     1.0071920 |  4.9758704936 |  4.9336125455 |  4.8112733169 |  4.6324700801 |
  3.600000 |     1.0062464 |  4.9813986282 |  4.9413413873 |  4.8256115871 |  4.6559493809 |
  3.700000 |     1.0054251 |  4.9868015325 |  4.9487674501 |  4.8391249071 |  4.6779777518 |
  3.800000 |     1.0047118 |  4.9920914584 |  4.9559219727 |  4.8518961895 |  4.6986862073 |
  3.900000 |     1.0040923 |  4.9972791074 |  4.9628322190 |  4.8639984252 |  4.7181923848 |
  4.000000 |     1.0035543 |  5.0023738641 |  4.9695220659 |  4.8754960261 |  4.7366019988 |
  4.100000 |     1.0030870 |  5.0073839906 |  4.9760124926 |  4.8864459698 |  4.7540101357 |
  4.200000 |     1.0026812 |  5.0123167869 |  4.9823219899 |  4.8968987769 |  4.7705024065 |
  4.300000 |     1.0023287 |  5.0171787262 |  4.9884669042 |  4.9068993470 |  4.7861559710 |
  4.400000 |     1.0020225 |  5.0219755675 |  4.9944617278 |  4.9164876757 |  4.8010404476 |
  4.500000 |     1.0017567 |  5.0267124515 |  5.0003193442 |  4.9256994694 |  4.8152187213 |
  4.600000 |     1.0015257 |  5.0313939809 |  5.0060512374 |  4.9345666752 |  4.8287476610 |
  4.700000 |     1.0013252 |  5.0360242888 |  5.0116676694 |  4.9431179381 |  4.8416787558 |
  4.800000 |     1.0011510 |  5.0406070975 |  5.0171778334 |  4.9513789950 |  4.8540586806 |
  4.900000 |     1.0009997 |  5.0451457683 |  5.0225899841 |  4.9593730175 |  4.8659297981 |
  5.000000 |     1.0008683 |  5.0496433440 |  5.0279115506 |  4.9671209078 |  4.8773306042 |
  5.100000 |     1.0007541 |  5.0541025865 |  5.0331492341 |  4.9746415578 |  4.8882961250 |
  5.200000 |     1.0006550 |  5.0585260080 |  5.0383090916 |  4.9819520733 |  4.8988582688 |
  5.300000 |     1.0005689 |  5.0629158993 |  5.0433966094 |  4.9890679711 |  4.9090461401 |
  5.400000 |     1.0004941 |  5.0672743534 |  5.0484167674 |  4.9960033512 |  4.9188863189 |
  5.500000 |     1.0004292 |  5.0716032866 |  5.0533740938 |  5.0027710477 |  4.9284031098 |
  5.600000 |     1.0003728 |  5.0759044568 |  5.0582727148 |  5.0093827612 |  4.9376187637 |
  5.700000 |     1.0003238 |  5.0801794797 |  5.0631163964 |  5.0158491766 |  4.9465536767 |
  5.800000 |     1.0002812 |  5.0844298428 |  5.0679085829 |  5.0221800654 |  4.9552265668 |
  5.900000 |     1.0002443 |  5.0886569179 |  5.0726524290 |  5.0283843777 |  4.9636546328 |
  6.000000 |     1.0002122 |  5.0928619723 |  5.0773508299 |  5.0344703229 |  4.9718536961 |
  6.100000 |     1.0001843 |  5.0970461782 |  5.0820064464 |  5.0404454414 |  4.9798383278 |
  6.200000 |     1.0001601 |  5.1012106218 |  5.0866217282 |  5.0463166688 |  4.9876219629 |
  6.300000 |     1.0001390 |  5.1053563107 |  5.0911989343 |  5.0520903926 |  4.9952170030 |
  6.400000 |     1.0001208 |  5.1094841810 |  5.0957401505 |  5.0577725031 |  5.0026349083 |
  6.500000 |     1.0001049 |  5.1135951036 |  5.1002473061 |  5.0633684389 |  5.0098862805 |
  6.600000 |     1.0000911 |  5.1176898893 |  5.1047221880 |  5.0688832276 |  5.0169809378 |
  6.700000 |     1.0000791 |  5.1217692943 |  5.1091664537 |  5.0743215223 |  5.0239279821 |
  6.800000 |     1.0000687 |  5.1258340244 |  5.1135816424 |  5.0796876345 |  5.0307358601 |
  6.900000 |     1.0000597 |  5.1298847389 |  5.1179691860 |  5.0849855635 |  5.0374124183 |
  7.000000 |     1.0000519 |  5.1339220548 |  5.1223304177 |  5.0902190231 |  5.0439649527 |
-----------|---------------|---------------|---------------|---------------|---------------|
--- Stop Module: single_aniso at Tue Oct 24 10:08:09 2023 /rc=_RC_ALL_IS_WELL_ ---
*** files: xmldump
    saved to directory /home/korden/calc/molcasfiles/dybpm
--- Module single_aniso spent 40 seconds ---

>>> COPY dybpm.aniso /home/korden/calc/molcasfiles/dybpm/dybpm.aniso

    Timing: Wall=71938.98 User=71428.62 System=491.42
