   This run of MOLCAS is using the pymolcas driver

                             OPE
                             OPE          NMOL  CASOP  ENMOLC A   SO
                 OPE        NMOLC        AS  OP EN  MO LC     AS  OP
                OPENM       OL CA        SO  PE NM  OL CA     SOP EN
                OP EN      MO   LC       AS  OP ENMOL  CASO   PENMOL
                OP  EN     MO   LC       AS  OP EN     MO     LC ASO
               OP   E  NMOL  C  AS       OP  EN MO     LC     AS  OP
               OP  E   NMO   LC AS        OPEN  MO     LCASOP EN   M
               O  PEN   MO  LCA  SO
            OPE   NMO   L   CAS    OP
        OPENMOL  CASOP     ENMOL   CASOPE
     OPENMOLCA   SOPENMOLCASOPEN   MOLCASOPE
    OPENMOLCAS   OP           EN   MOL    CAS
    OPENMOLCAS       OP  ENM        O     LCA
    OPENMOLCAS    OPEN  MOLCASO     P  E  NMO
    OPENMOLCAS     OP               E  N  MOL
    OPENMOLCA   SO           PENM   O  L  CAS    OPEN    MO    LCAS
    OPENMOLCA   SOP           ENM   O  L  CAS   OP  EN  MOLC  AS   O
    OPENMOLCA   SOPE           NM      O  LCA   S      OP  EN MO
    OPENMOLC                AS         O  PEN   M      OL  CA  SOPE
    OPENMO        LCASOPE  NMOL        C  ASO   P      ENMOLC     AS
    OPE     NMO      LCA  SO     P     E   NM   OL  CA SO  PE N   MO
          OPENMOLCA            SOPE   NMO        LCAS  O    P  ENMO
     OPENMOLCASOPENMOLCASOPENMOLCASOPENMOLCA
        OPENMOLCASOPENMOLCASOPENMOLCASOPE
            OPENMOLCASOPENMOLCASOPENM
               OPENMOLCASOPENMOLCA        version: v19.11 ?
                   OPENMOLCASO
                       OPE                tag:

 OpenMolcas is free software; you can redistribute it and/or modify it
 under the terms of the GNU Lesser General Public License version 2.1.
 OpenMolcas is distributed in the hope that it will be useful, but it
 is provided "as is" and without any express or implied warranties.
 For more details see the full text of the license in the file
 LICENSE or in <http://www.gnu.org/licenses/>.

                 Copyright (C) The OpenMolcas Authors
           For the author list and the recommended citation,
                   consult the file CONTRIBUTORS.md

           *************************************************
           * pymolcas version py2.06                       *
           *   build 99e611e35fc7aec87fd6f34cfa558dd4      *
           *   (after the EMIL interpreter by V. Veryazov) *
           *************************************************


   -----------------------------------------------------------------------------------------------------------
  |
  |              Project: Dyhf4
  |       Submitted from: /media/korden/5fb66ce1-8053-4a4f-9303-c4fa91c2cea8/home/korden/calc/molcasfiles/hfac
  |         Scratch area: /tmp/Dyhf4
  |      Save outputs to: /media/korden/5fb66ce1-8053-4a4f-9303-c4fa91c2cea8/home/korden/calc/molcasfiles/hfac
  |               Molcas: /usr/share/openmolcas
  |
  | Scratch area is empty
  |
  |        MOLCAS_COLOR = YES
  |       MOLCAS_DRIVER = /usr/bin/pymolcas
  | MOLCAS_KEEP_WORKDIR = YES
  |      MOLCAS_MAXITER = 100
  |       MOLCAS_MOLDEN = YES
  |  MOLCAS_NEW_WORKDIR = NO
  |       MOLCAS_NPROCS = 1
  |        MOLCAS_PRINT = NORMAL
  |         MOLCAS_SAVE = ORIG
  |       MOLCAS_SOURCE = /home/korden/build
  |    MOLCAS_STRUCTURE = 0
  |         MOLCAS_TRAP = YES
  |
   -----------------------------------------------------------------------------------------------------------

++ ---------   Input file   ---------

&SEWARD
Douglas-Kroll
HIGH Cholesky

AMFI
ANGM
4.257166    9.599495   14.271708    Angstrom

Basis Set
Dy.ANO-RCC-VTZP.
Dy1    4.257166    9.599495   14.271708 Angstrom
End of Basis Set

Basis Set
O.ANO-RCC-VTZP.
 O1   4.479912   11.344352   12.612794      Angstrom
 O2    5.789538    8.850112   12.640587      Angstrom
 O3    2.052436    9.957017   13.581868      Angstrom
 O4    3.414392   11.377187   15.545958      Angstrom
 O5    5.770898    8.301412   15.488518      Angstrom
 O6    3.425204    7.545469   13.504046      Angstrom
 O7    3.018224    8.679820   16.048098      Angstrom
 O8    6.066957   10.960250   14.839997        Angstrom

End of Basis Set

Basis Set
C.ANO-RCC-VDZP.
 C1    5.499732   11.622745   11.934627     Angstrom
 C2    6.622943    9.481223   11.973538     Angstrom
 C3    2.170470    7.771705   16.120362     Angstrom
 C4    2.508351    6.802899   13.919099     Angstrom
 C5    1.059541   10.372588   14.234094     Angstrom
 C6    2.247055   11.595483   15.951746     Angstrom
 C7    1.864155    6.807871   15.151288     Angstrom
 C8    1.334054    7.779769   17.426667     Angstrom
 C9    2.150033   12.327438   17.302521     Angstrom
 C10    1.049779   11.172865   15.353255     Angstrom
 C11   -0.308920    9.865747   13.717131     Angstrom
 C12    2.104997    5.709988   12.872202     Angstrom
 C13    6.889557    8.483281   15.999922     Angstrom
 C14    7.855664    8.645750   11.573308     Angstrom
 C15    5.527395   13.083443   11.434339     Angstrom
 C16    7.488995    7.228864   16.655854     Angstrom
 C17    6.584915   10.825384   11.582573      Angstrom
 C18    7.136661   10.811498   15.479253     Angstrom
 C19    7.642080    9.655324   16.053657      Angstrom
 C20    7.933187   12.116365   15.646015     Angstrom
End of Basis Set

Basis Set
H.ANO-RCC-MB.
 H1    1.205894    6.148693   15.336616     Angstrom
 H2    0.218953   11.445287   15.726247      Angstrom
 H3    7.299270   11.192467   11.074967     Angstrom
 H4    8.492012    9.661278   16.477622     Angstrom
End of Basis Set

Basis Set
F.ANO-RCC-VDZP.
 F1    1.275577    4.771523   13.359519     Angstrom
 F2    7.504327    7.557900   10.908111     Angstrom
 F3    2.061362    8.007543   18.475417     Angstrom
 F4   -1.194352   10.835489   13.592986     Angstrom
 F5    4.450641   13.314466   10.670939     Angstrom
 F6    3.264148   12.984438   17.604547     Angstrom
 F7   -0.812936    9.004433   14.575030     Angstrom
 F8    0.655681    6.679832   17.626782     Angstrom
 F9    7.518591    6.211419   15.825748     Angstrom
 F10    1.970180   11.450825   18.264185     Angstrom
 F11   -0.209139    9.287219   12.540530     Angstrom
 F12    1.313383    6.349001   12.029126     Angstrom
 F13    6.661811    6.798219   17.641605     Angstrom
 F14    3.173733    5.303876   12.173653     Angstrom
 F15    0.437916    8.767114   17.367374     Angstrom
 F16    1.196662   13.239068   17.322903     Angstrom
 F17    8.483193    8.223151   12.672087     Angstrom
 F18    8.750296    9.322870   10.858083     Angstrom
 F19    6.577682   13.400246   10.719114     Angstrom
 F20    5.438359   13.915941   12.447884     Angstrom
 F21    8.686930    7.398310   17.163553     Angstrom
 F22    9.133374   11.929047   16.192625     Angstrom
 F23    8.095895   12.729251   14.474973     Angstrom
 F24    7.268117   12.941704   16.450180     Angstrom
End of Basis Set

&RASSCF
SYMM
1
CIMX
200
charge
-1
Spin
6
ciroot
21 21 1
Nactel
9 0 0
Ras2
7
ORBL
nocore
ORBA
compact

>>> COPY $Project.JobIph JOB001

&RASSI
spinorbit
nrofjobiphs=1 21
1 2 3 4 5 6 7 8 9 10 11 12 13 14 15 16 17 18 19 20 21
mees
PROP
          3
           'ANGMOM' 1
           'ANGMOM' 2
           'ANGMOM' 3

&SINGLE_ANISO
MLTP
8
2 2 2 2  2 2 2 2
CRYS
Dy
XFIE
0.5
TINT
0 300 301
HINT
0 5 51
TMAG
3 2.0 4.0 6.0
UBAR

>>> COPY $Project.aniso $CurrDir/Dyhf4.aniso

-- ----------------------------------

--- Start Module: seward at Wed Jun 19 09:03:43 2024 ---

()()()()()()()()()()()()()()()()()()()()()()()()()()()()()()()()()()()()()()()()()()()()()()()()()()

                                              &SEWARD

                                   only a single process is used
                       available to each process: 32 GB of memory, 1 thread?
                                            pid: 1425626
()()()()()()()()()()()()()()()()()()()()()()()()()()()()()()()()()()()()()()()()()()()()()()()()()()

               SEWARD will generate:
                  Multipole Moment integrals up to order  2
                  Kinetic Energy integrals
                  Nuclear Attraction integrals (point charge)
                  One-Electron Hamiltonian integrals
                  Velocity integrals
                  Relativistic Douglas-Kroll integrals
                  Orbital angular momentum around ( 8.0449 18.1404 26.9696 )
                  Velocity quadrupole around ( 8.0320 18.1524 27.3937 )
                  Atomic mean-field integrals
                  Cholesky decomposed two-electron repulsion integrals
                   - CD Threshold:   0.10E-07

                   Integrals are discarded if absolute value <: 0.10E-39
                   Integral cutoff threshold is set to       <: 0.10E-39

++    Symmetry information:
      ---------------------

                    Character Table for C1 

                             E  
                    a        1  x, y, xy, Rz, z, xz, Ry, yz, Rx, I
--


++    Basis set information:
      ----------------------


      Basis set label: DY.ANO-RCC...8S7P5D3F2G1H.

      Electronic valence basis set:
      ------------------
      Associated Effective Charge  66.000000 au
      Associated Actual Charge     66.000000 au
      Nuclear Model: Point charge

      Shell  nPrim  nBasis  Cartesian Spherical Contaminant
         s      25       8        X                  
         p      22       7        X                  
         d      15       5                 X         
         f      11       3                 X         
         g       4       2                 X         
         h       2       1                 X         


      Basis set label: O.ANO-RCC...4S3P2D1F.

      Electronic valence basis set:
      ------------------
      Associated Effective Charge   8.000000 au
      Associated Actual Charge      8.000000 au
      Nuclear Model: Point charge

      Shell  nPrim  nBasis  Cartesian Spherical Contaminant
         s      14       4        X                  
         p       9       3        X                  
         d       4       2                 X         
         f       3       1                 X         


      Basis set label: C.ANO-RCC...3S2P1D.

      Electronic valence basis set:
      ------------------
      Associated Effective Charge   6.000000 au
      Associated Actual Charge      6.000000 au
      Nuclear Model: Point charge

      Shell  nPrim  nBasis  Cartesian Spherical Contaminant
         s      14       3        X                  
         p       9       2        X                  
         d       4       1                 X         


      Basis set label: H.ANO-RCC...1S.

      Electronic valence basis set:
      ------------------
      Associated Effective Charge   1.000000 au
      Associated Actual Charge      1.000000 au
      Nuclear Model: Point charge

      Shell  nPrim  nBasis  Cartesian Spherical Contaminant
         s       8       1        X                  


      Basis set label: F.ANO-RCC...3S2P1D.

      Electronic valence basis set:
      ------------------
      Associated Effective Charge   9.000000 au
      Associated Actual Charge      9.000000 au
      Nuclear Model: Point charge

      Shell  nPrim  nBasis  Cartesian Spherical Contaminant
         s      14       3        X                  
         p       9       2        X                  
         d       4       1                 X         
--


++    Molecular structure info:
      -------------------------

                    ************************************************ 
                    **** Cartesian Coordinates / Bohr, Angstrom **** 
                    ************************************************ 

     Center  Label                x              y              z                     x              y              z
        1      DY1              8.044878      18.140416      26.969619              4.257166       9.599495      14.271708
        2      O1               8.465807      21.437718      23.834726              4.479912      11.344352      12.612794
        3      O2              10.940641      16.724288      23.887247              5.789538       8.850112      12.640587
        4      O3               3.878542      18.816035      25.666011              2.052436       9.957017      13.581868
        5      O4               6.452266      21.499767      29.377603              3.414392      11.377187      15.545958
        6      O5              10.905417      15.687395      29.269057              5.770898       8.301412      15.488518
        7      O6               6.472697      14.258870      25.518949              3.425204       7.545469      13.504046
        8      O7               5.703617      16.402483      30.326510              3.018224       8.679820      16.048098
        9      O8              11.464887      20.711871      28.043530              6.066957      10.960250      14.839997
       10      C1              10.392987      21.963805      22.553176              5.499732      11.622745      11.934627
       11      C2              12.515548      17.916915      22.626708              6.622943       9.481223      11.973538
       12      C3               4.101594      14.686394      30.463069              2.170470       7.771705      16.120362
       13      C4               4.740096      12.855616      26.303285              2.508351       6.802899      13.919099
       14      C5               2.002242      19.601351      26.898539              1.059541      10.372588      14.234094
       15      C6               4.246319      21.912287      30.144431              2.247055      11.595483      15.951746
       16      C7               3.522742      12.865012      28.631785              1.864155       6.807871      15.151288
       17      C8               2.520997      14.701633      32.931628              1.334054       7.779769      17.426667
       18      C9               4.062974      23.295482      32.697026              2.150033      12.327438      17.302521
       19      C10              1.983795      21.113655      29.013447              1.049779      11.172865      15.353255
       20      C11             -0.583774      18.643560      25.921621             -0.308920       9.865747      13.717131
       21      C12              3.977868      10.790313      24.324936              2.104997       5.709988      12.872202
       22      C13             13.019376      16.031078      30.235471              6.889557       8.483281      15.999922
       23      C14             14.845053      16.338100      21.870382              7.855664       8.645750      11.573308
       24      C15             10.445263      24.724124      21.607769              5.527395      13.083443      11.434339
       25      C16             14.152149      13.660573      31.475002              7.488995       7.228864      16.655854
       26      C17             12.443686      20.457011      21.887891              6.584915      10.825384      11.582573
       27      C18             13.486335      20.430770      29.251549              7.136661      10.811498      15.479253
       28      C19             14.441438      18.245918      30.337015              7.642080       9.655324      16.053657
       29      C20             14.991551      22.896611      29.566683              7.933187      12.116365      15.646015
       30      H1               2.278809      11.619346      28.982004              1.205894       6.148693      15.336616
       31      H2               0.413761      21.628458      29.718300              0.218953      11.445287      15.726247
       32      H3              13.793621      21.150697      20.928654              7.299270      11.192467      11.074967
       33      H4              16.047577      18.257169      31.138193              8.492012       9.661278      16.477622
       34      F1               2.410491       9.016872      25.245832              1.275577       4.771523      13.359519
       35      F2              14.181123      14.282361      20.613342              7.504327       7.557900      10.908111
       36      F3               3.895410      15.132063      34.913478              2.061362       8.007543      18.475417
       37      F4              -2.256998      20.476107      25.687021             -1.194352      10.835489      13.592986
       38      F5               8.410493      25.160694      20.165152              4.450641      13.314466      10.670939
       39      F6               6.168346      24.537032      33.267772              3.264148      12.984438      17.604547
       40      F7              -1.536226      17.015912      27.542815             -0.812936       9.004433      14.575030
       41      F8               1.239058      12.623053      33.309790              0.655681       6.679832      17.626782
       42      F9              14.208078      11.737881      29.906329              7.518591       6.211419      15.825748
       43      F10              3.723101      21.638923      34.514308              1.970180      11.450825      18.264185
       44      F11             -0.395215      17.550300      23.698167             -0.209139       9.287219      12.540530
       45      F12              2.481934      11.997873      22.731754              1.313383       6.349001      12.029126
       46      F13             12.588998      12.846772      33.337802              6.661811       6.798219      17.641605
       47      F14              5.997486      10.022873      23.004870              3.173733       5.303876      12.173653
       48      F15              0.827541      16.567444      32.819580              0.437916       8.767114      17.367374
       49      F16              2.261363      25.018213      32.735542              1.196662      13.239068      17.322903
       50      F17             16.030911      15.539503      23.946774              8.483193       8.223151      12.672087
       51      F18             16.535663      17.617671      20.518803              8.750296       9.322870      10.858083
       52      F19             12.430018      25.322795      20.256190              6.577682      13.400246      10.719114
       53      F20             10.277009      26.297317      23.523092              5.438359      13.915941      12.447884
       54      F21             16.415919      13.980780      32.434414              8.686930       7.398310      17.163553
       55      F22             17.259575      22.542632      30.599626              9.133374      11.929047      16.192625
       56      F23             15.299024      24.054798      27.353735              8.095895      12.729251      14.474973
       57      F24             13.734751      24.456276      31.086335              7.268117      12.941704      16.450180

                    ************************************************* 
                    **** InterNuclear Distances / Bohr, Angstrom **** 
                    ************************************************* 

     Atom centers         Bohr        Angstrom
   30 H1       16 C7      1.794908        0.949824
   33 H4       28 C19   
   32 H3       26 C17     1.795455        0.950114
   31 H2       19 C10     1.796342        0.950583
   11 C2        3 O2      2.343428        1.240088
   22 C13       6 O5      2.349659        1.243386
   12 C3        8 O7      2.351613        1.244420
   13 C4        7 O6      2.363517        1.250719
   15 C6        5 O4      2.371582        1.254987
   27 C18       9 O8      2.371619        1.255007
   10 C1        2 O1      2.373428        1.255964
   14 C5        4 O3      2.378308        1.258546
   36 F3       17 C8      2.449900        1.296431
   41 F8       17 C8      2.471208        1.307707
   52 F19      24 C15     2.474758        1.309585
   54 F21      25 C16     2.479446        1.312066
   42 F9       25 C16     2.482057        1.313448
   43 F10      18 C9      2.482380        1.313619
   53 F20      24 C15     2.484292        1.314631
   44 F11      20 C11     2.484858        1.314930
   40 F7       20 C11     2.486900        1.316011
   37 F4       20 C11     2.492578        1.319015
   49 F16      18 C9      2.493007        1.319243
   45 F12      21 C12     2.496848        1.321275
   35 F2       23 C14     2.499403        1.322627
   39 F6       18 C9      2.509938        1.328202
   57 F24      29 C20     2.514248        1.330483
   51 F18      23 C14     2.514404        1.330566
   56 F23      29 C20     2.516561        1.331707
   55 F22      29 C20     2.517183        1.332036
   50 F17      23 C14     2.520995        1.334053
   48 F15      17 C8      2.522221        1.334702
   47 F14      21 C12     2.531876        1.339811
   38 F5       24 C15     2.532198        1.339981
   34 F1       21 C12     2.539648        1.343924
   46 F13      25 C16     2.564320        1.356980
   19 C10      14 C5      2.600046        1.375885
   28 C19      27 C18     2.619931        1.386408
   16 C7       13 C4      2.627537        1.390433
   26 C17      10 C1      2.630285        1.391887
   28 C19      22 C13     2.634025        1.393866
   26 C17      11 C2      2.646338        1.400382
   16 C7       12 C3      2.646905        1.400682
   19 C10      15 C6      2.652537        1.403662
   25 C16      22 C13     2.904980        1.537249
   29 C20      27 C18     2.906090        1.537837
   18 C9       15 C6      2.909052        1.539404
   23 C14      11 C2      2.913980        1.542012
   24 C15      10 C1      2.918200        1.544245
   20 C11      14 C5      2.925613        1.548168
   17 C8       12 C3      2.931263        1.551157
   21 C12      13 C4      2.959785        1.566251
   31 H2       14 C5      3.818833        2.020839
   30 H1       13 C4      3.842113        2.033159
   33 H4       27 C18     3.852782        2.038804
   32 H3       10 C1      3.855454        2.040218
   30 H1       12 C3      3.863015        2.044219
   33 H4       22 C13     3.865281        2.045418
   31 H2       15 C6      3.866606        2.046120
   32 H3       11 C2      3.869652        2.047731
   45 F12      34 F1      3.900265        2.063931
   46 F13      42 F9      3.952981        2.091828
   49 F16      39 F6      3.972319        2.102060
   48 F15      36 F3      3.982028        2.107198
   41 F8       36 F3      3.990383        2.111620
   43 F10      39 F6      3.991504        2.112213
   40 F7       37 F4      3.992046        2.112500
   48 F15      41 F8      3.995982        2.114583
   44 F11      37 F4      3.997764        2.115526
   53 F20      38 F5      4.006439        2.120116
   50 F17      35 F2      4.014211        2.124229
   52 F19      38 F5      4.023822        2.129315
   53 F20      52 F19     4.032095        2.133693
   54 F21      42 F9      4.036876        2.136223
   57 F24      55 F22     4.040212        2.137988
   51 F18      50 F17     4.040364        2.138068
   47 F14      45 F12     4.041574        2.138709
   44 F11      40 F7      4.045837        2.140964
   57 F24      56 F23     4.066994        2.152161
   56 F23      55 F22     4.082428        2.160328
   51 F18      35 F2      4.083759        2.161032
   49 F16      43 F10     4.089044        2.163829
   54 F21      46 F13     4.092359        2.165583
   45 F12      13 C4      4.311711        2.281659
   47 F14      34 F1      4.347468        2.300581
   43 F10      15 C6      4.409570        2.333444
   23 C14       3 O2      4.411499        2.334465
    9 O8        1 DY1     4.411590        2.334513
    6 O5        1 DY1     4.414455        2.336029
    4 O3        1 DY1     4.417489        2.337635
   25 C16       6 O5      4.417632        2.337710
   29 C20       9 O8      4.419326        2.338607
    5 O4        1 DY1     4.429451        2.343965
   40 F7       14 C5      4.429486        2.343983
   57 F24      27 C18     4.430897        2.344730
    7 O6        1 DY1     4.431997        2.345312
   24 C15       2 O1      4.435994        2.347427
   21 C12       7 O6      4.436296        2.347587
   52 F19      32 H3      4.440498        2.349810
   53 F20      10 C1      4.442242        2.350733
   50 F17      11 C2      4.444371        2.351860
    8 O7        1 DY1     4.446418        2.352943
   17 C8        8 O7      4.450685        2.355201
   48 F15      12 C3      4.450945        2.355339
   38 F5       10 C1      4.455676        2.357842
    3 O2        1 DY1     4.460032        2.360147
   46 F13      22 C13     4.466485        2.363562
   18 C9        5 O4      4.466752        2.363703
   42 F9       22 C13     4.466865        2.363763
   20 C11       4 O3      4.472958        2.366987
   56 F23      27 C18     4.474497        2.367802
   35 F2       11 C2      4.476355        2.368785
   36 F3       12 C3      4.477418        2.369348
   19 C10       4 O3      4.480452        2.370953
   54 F21      33 H4      4.483679        2.372661
   55 F22      33 H4      4.485998        2.373888
   16 C7        8 O7      4.487985        2.374939
   51 F18      32 H3      4.490996        2.376533
   26 C17       3 O2      4.493305        2.377755
   28 C19       6 O5      4.493331        2.377768
   44 F11      14 C5      4.494106        2.378179
   28 C19       9 O8      4.494536        2.378406
   19 C10       5 O4      4.499881        2.381234
   49 F16      15 C6      4.505627        2.384275
   16 C7        7 O6      4.509415        2.386280
   39 F6       15 C6      4.509848        2.386509
   37 F4       14 C5      4.513768        2.388583
   47 F14      13 C4      4.526036        2.395075
   55 F22      27 C18     4.529307        2.396806
   27 C18      22 C13     4.532488        2.398489
   41 F8       12 C3      4.533797        2.399182
   26 C17       2 O1      4.536020        2.400358
   54 F21      22 C13     4.536031        2.400364
   51 F18      11 C2      4.549080        2.407269
   52 F19      10 C1      4.550654        2.408103
   34 F1       30 H1      4.555128        2.410470
   41 F8       30 H1      4.562702        2.414478
    2 O1        1 DY1     4.569129        2.417879
   11 C2       10 C1      4.570338        2.418519
   15 C6       14 C5      4.572977        2.419915
   13 C4       12 C3      4.589470        2.428643
   34 F1       13 C4      4.613158        2.441178
   20 C11      19 C10     4.717327        2.496302
   26 C17      24 C15     4.720214        2.497830
   28 C19      25 C16     4.733296        2.504752
   29 C20      28 C19     4.746049        2.511501
   19 C10      18 C9      4.759423        2.518578
   26 C17      23 C14     4.767841        2.523033
   17 C8       16 C7      4.781770        2.530404
   21 C12      16 C7      4.802130        2.541178
   44 F11       4 O3      4.872319        2.578320
   49 F16      31 H2      4.899778        2.592851
   31 H2       20 C11     4.931477        2.609625
   39 F6        5 O4      4.943582        2.616031
   32 H3       24 C15     4.943893        2.616196
   47 F14       7 O6      4.948746        2.618764
   37 F4       31 H2      4.971125        2.630606
   33 H4       25 C16     4.983451        2.637129
   31 H2       18 C9      4.996852        2.644220
   33 H4       29 C20     5.010914        2.651661
   32 H3       23 C14     5.015322        2.653994
   30 H1       17 C8      5.015843        2.654270
   30 H1       21 C12     5.026169        2.659734
   36 F3        8 O7      5.091547        2.694331
   52 F19      26 C17     5.132104        2.715792
   56 F23       9 O8      5.133380        2.716468
   55 F22      28 C19     5.145154        2.722698
   54 F21      28 C19     5.146753        2.723544
   51 F18      26 C17     5.165320        2.733370
   42 F9        6 O5      5.187711        2.745219
   53 F20       2 O1      5.195505        2.749343
    9 O8        6 O5      5.201950        2.752753
   41 F8       16 C7      5.211286        2.757694
   35 F2        3 O2      5.213653        2.758947
    9 O8        2 O1      5.218751        2.761644
   50 F17       3 O2      5.226673        2.765836
   38 F5        2 O1      5.227751        2.766407
    8 O7        5 O4      5.238627        2.772162
   46 F13       6 O5      5.240064        2.772922
   34 F1       16 C7      5.244994        2.775531
    7 O6        4 O3      5.245858        2.775988
    9 O8        5 O4      5.246609        2.776386
    5 O4        4 O3      5.253798        2.780190
    8 O7        7 O6      5.319700        2.815064
    3 O2        2 O1      5.323908        2.817291
   57 F24       9 O8      5.332121        2.821637
    8 O7        6 O5      5.356144        2.834349
    7 O6        3 O2      5.357542        2.835089
   45 F12       7 O6      5.367192        2.840196
   22 C13       9 O8      5.397301        2.856129
   27 C18       6 O5      5.400097        2.857608
   49 F16      19 C10     5.401538        2.858371
   37 F4       19 C10     5.427329        2.872019
   10 C1        3 O2      5.434355        2.875737
   14 C5        5 O4      5.436217        2.876722
   13 C4        8 O7      5.449310        2.883650
   15 C6        4 O3      5.456948        2.887693
   40 F7       31 H2      5.459923        2.889267
   48 F15       8 O7      5.478935        2.899327
    6 O5        3 O2      5.480900        2.900367
   12 C3        7 O6      5.499931        2.910438
   11 C2        2 O1      5.500525        2.910752
    8 O7        4 O3      5.556653        2.940454
    4 O3        2 O1      5.591943        2.959129
   40 F7       19 C10     5.598643        2.962674
--


            Nuclear Potential Energy          12203.32501903 au


      Basis set specifications :
      Symmetry species         a  
      Basis functions          964

      Cholesky vectors       12719


 Sorry, Molden does not know how to handle
 functions with angular momentum larger than g
--- Stop Module: seward at Wed Jun 19 17:24:48 2024 /rc=_RC_ALL_IS_WELL_ ---
*** files: Dyhf4.GssOrb xmldump
    saved to directory /media/korden/5fb66ce1-8053-4a4f-9303-c4fa91c2cea8/home/korden/calc/molcasfiles/hfac
--- Module seward spent 8 hours 21 minutes 5 seconds ---

*** symbolic link created: INPORB -> Dyhf4.GssOrb
--- Start Module: rasscf at Wed Jun 19 17:24:48 2024 ---

()()()()()()()()()()()()()()()()()()()()()()()()()()()()()()()()()()()()()()()()()()()()()()()()()()

                                              &RASSCF

                                   only a single process is used
                       available to each process: 32 GB of memory, 1 thread?
                                            pid: 1427117
()()()()()()()()()()()()()()()()()()()()()()()()()()()()()()()()()()()()()()()()()()()()()()()()()()


      Header of the ONEINT file:
      --------------------------
      
      Integrals generated by Gateway/Seward, Wed Jun 19 09:03:43 2024


      OrdInt status: non-squared


      Cartesian coordinates in Angstrom:
      -----------------------------------------------------
      No.  Label        X            Y            Z        
      -----------------------------------------------------
       1   DY1        4.25716600   9.59949500  14.27170800
       2   O1         4.47991200  11.34435200  12.61279400
       3   O2         5.78953800   8.85011200  12.64058700
       4   O3         2.05243600   9.95701700  13.58186800
       5   O4         3.41439200  11.37718700  15.54595800
       6   O5         5.77089800   8.30141200  15.48851800
       7   O6         3.42520400   7.54546900  13.50404600
       8   O7         3.01822400   8.67982000  16.04809800
       9   O8         6.06695700  10.96025000  14.83999700
      10   C1         5.49973200  11.62274500  11.93462700
      11   C2         6.62294300   9.48122300  11.97353800
      12   C3         2.17047000   7.77170500  16.12036200
      13   C4         2.50835100   6.80289900  13.91909900
      14   C5         1.05954100  10.37258800  14.23409400
      15   C6         2.24705500  11.59548300  15.95174600
      16   C7         1.86415500   6.80787100  15.15128800
      17   C8         1.33405400   7.77976900  17.42666700
      18   C9         2.15003300  12.32743800  17.30252100
      19   C10        1.04977900  11.17286500  15.35325500
      20   C11       -0.30892000   9.86574700  13.71713100
      21   C12        2.10499700   5.70998800  12.87220200
      22   C13        6.88955700   8.48328100  15.99992200
      23   C14        7.85566400   8.64575000  11.57330800
      24   C15        5.52739500  13.08344300  11.43433900
      25   C16        7.48899500   7.22886400  16.65585400
      26   C17        6.58491500  10.82538400  11.58257300
      27   C18        7.13666100  10.81149800  15.47925300
      28   C19        7.64208000   9.65532400  16.05365700
      29   C20        7.93318700  12.11636500  15.64601500
      30   H1         1.20589400   6.14869300  15.33661600
      31   H2         0.21895300  11.44528700  15.72624700
      32   H3         7.29927000  11.19246700  11.07496700
      33   H4         8.49201200   9.66127800  16.47762200
      34   F1         1.27557700   4.77152300  13.35951900
      35   F2         7.50432700   7.55790000  10.90811100
      36   F3         2.06136200   8.00754300  18.47541700
      37   F4        -1.19435200  10.83548900  13.59298600
      38   F5         4.45064100  13.31446600  10.67093900
      39   F6         3.26414800  12.98443800  17.60454700
      40   F7        -0.81293600   9.00443300  14.57503000
      41   F8         0.65568100   6.67983200  17.62678200
      42   F9         7.51859100   6.21141900  15.82574800
      43   F10        1.97018000  11.45082500  18.26418500
      44   F11       -0.20913900   9.28721900  12.54053000
      45   F12        1.31338300   6.34900100  12.02912600
      46   F13        6.66181100   6.79821900  17.64160500
      47   F14        3.17373300   5.30387600  12.17365300
      48   F15        0.43791600   8.76711400  17.36737400
      49   F16        1.19666200  13.23906800  17.32290300
      50   F17        8.48319300   8.22315100  12.67208700
      51   F18        8.75029600   9.32287000  10.85808300
      52   F19        6.57768200  13.40024600  10.71911400
      53   F20        5.43835900  13.91594100  12.44788400
      54   F21        8.68693000   7.39831000  17.16355300
      55   F22        9.13337400  11.92904700  16.19262500
      56   F23        8.09589500  12.72925100  14.47497300
      57   F24        7.26811700  12.94170400  16.45018000
      -----------------------------------------------------
      Nuclear repulsion energy =12203.32501903

++    Wave function specifications:
      -----------------------------

      Number of closed shell electrons         462
      Number of electrons in active shells       9
      Max number of holes in RAS1 space          0
      Max nr of electrons in RAS3 space          0
      Number of inactive orbitals              231
      Number of active orbitals                  7
      Number of secondary orbitals             726
      Spin quantum number                      2.5
      State symmetry                             1
--

++    Orbital specifications:
      -----------------------

      Symmetry species                           1
                                                 a
      Frozen orbitals                            0
      Inactive orbitals                        231
      Active orbitals                            7
      RAS1 orbitals                              0
      RAS2 orbitals                              7
      RAS3 orbitals                              0
      Secondary orbitals                       726
      Deleted orbitals                           0
      Number of basis functions                964
--

++    CI expansion specifications:
      ----------------------------

      Number of CSFs                            21
      Number of determinants                    21
      Number of root(s) required                21
      Root chosen for geometry opt.             21
      CI roots used                              1     2     3     4     5     6     7     8     9    10
                                                11    12    13    14    15    16    17    18    19    20
                                                21
      weights                                0.048 0.048 0.048 0.048 0.048 0.048 0.048 0.048 0.048 0.048
                                             0.048 0.048 0.048 0.048 0.048 0.048 0.048 0.048 0.048 0.048
                                             0.048
      highest root included in the CI           21
      max. size of the explicit Hamiltonian     21
--

++    Optimization specifications:
      ----------------------------

      RASSCF algorithm: LK Cholesky
      Maximum number of macro iterations       200
      Maximum number of SX iterations          100
      Threshold for RASSCF energy            0.100E-07
      Threshold for max MO rotation          0.100E+00
      Threshold for max BLB element          0.100E-03
      Level shift parameter                  0.500E+00
      Make Quasi-Newton update
--

      Orbitals from runfile: guessorb orbitals
      The MO-coefficients are taken from guessorb on runfile

      Total molecular charge   -1.00

      ************************************************************************************************************************
      *                                                                                                                      *
      *                                            Wave function control section                                             *
      *                                                                                                                      *
      ************************************************************************************************************************


                                         RASSCF iterations: Energy and convergence statistics
                                         ----------------------------------------------------

      Iter CI   SX   CI       RASSCF       Energy    max ROT     max BLB   max BLB  Level Ln srch  Step   QN   Walltime
          iter iter root      energy       change     param      element    value   shift minimum  type update hh:mm:ss
 Nr of preliminary CI iterations:   1
      Total energies have been shifted. Add               -15000.00 au
        1   1   11    0  -880.51124278    0.00E+00  -0.21E+00* 228 954 1 -0.14E+01*  3.47   0.00    SX    NO    1:27:40
        2   1   11    0  -887.23206790   -0.67E+01*  0.18E+00* 226 234 1  0.65E+00*  1.90   0.00    SX    NO    0:33:11
        3   1   11    0  -891.14856050   -0.39E+01* -0.17E+00* 226 234 1  0.38E+00*  1.27   0.00    SX    NO    0:34:41
        4   1   12    0  -893.16453590   -0.20E+01*  0.26E+00* 231 238 1 -0.24E+00*  0.85   0.00    SX    NO    0:36:37
        5   1   13    0  -894.18848821   -0.10E+01*  0.19E+00* 231 238 1 -0.22E+00*  0.53   2.08    QN   YES    0:38:16
        6   1   13    0  -894.68359457   -0.50E+00*  0.19E+00* 231 238 1 -0.17E+00*  0.41   2.50    QN   YES    0:38:35
        7   1   13    0  -895.10984227   -0.43E+00* -0.17E+00* 229 236 1  0.13E+00*  0.41   2.50    QN   YES    0:38:54
        8   1   13    0  -895.44495359   -0.34E+00* -0.19E+00* 228 237 1  0.12E+00*  0.44   2.50    QN   YES    0:39:16
        9   1   13    0  -895.71774167   -0.27E+00* -0.21E+00* 228 237 1  0.12E+00*  0.48   2.50    QN   YES    0:38:47
       10   1   13    0  -895.92980773   -0.21E+00* -0.18E+00* 228 235 1  0.89E-01*  0.49   1.96    QN   YES    0:38:22
       11   1   14    0  -896.05516132   -0.13E+00* -0.95E-01  228 235 1  0.58E-01*  0.44   1.43    QN   YES    0:38:49
       12   1   13    0  -896.10868132   -0.54E-01*  0.49E-01   76 961 1 -0.40E-01*  0.40   1.35    QN   YES    0:39:36
       13   1   13    0  -896.13515363   -0.26E-01*  0.14E-01   76 961 1 -0.14E-01*  0.39   1.46    QN   YES    0:40:12
       14   1   12    0  -896.14278518   -0.76E-02* -0.47E-02  228 241 1 -0.60E-02*  0.40   1.28    QN   YES    0:42:34
       15   1   11    0  -896.14366103   -0.88E-03* -0.24E-02  228 241 1 -0.28E-02*  0.40   1.21    QN   YES    0:44:28
       16   1   10    0  -896.14376081   -0.10E-03*  0.15E-02   75 949 1  0.23E-02*  0.40   1.15    QN   YES    0:46:03
       17   1   10    0  -896.14378519   -0.24E-04* -0.53E-03   50 962 1  0.16E-02*  0.40   0.93    QN   YES    0:46:35
       18   1    9    0  -896.14379387   -0.87E-05* -0.48E-03  231 240 1  0.41E-03*  0.40   1.40    QN   YES    0:47:22
       19   1    9    0  -896.14379675   -0.29E-05* -0.33E-03  231 240 1  0.23E-03*  0.40   1.33    QN   YES    0:49:47
       20   1    8    0  -896.14379761   -0.86E-06* -0.18E-03   50 962 1 -0.12E-03*  0.40   1.37    QN   YES    0:50:44
       21   1    7    0  -896.14379787   -0.27E-06* -0.56E-04  221 245 1  0.33E-04   0.40   1.26    QN   YES    0:51:47
       22   1    7    0  -896.14379793   -0.60E-07*  0.24E-04   74 950 1  0.21E-04   0.40   1.25    QN   YES    0:53:46
       23   1    6    0  -896.14379795   -0.17E-07*  0.89E-05   50 962 1  0.10E-04   0.40   1.15    QN   YES    0:54:24
       24   1    6    0  -896.14379795   -0.17E-08   0.13E-04  228 241 1 -0.42E-05   0.40   2.50    LS   YES    0:55:19
      Convergence after 24 iterations
       25   1    6    0  -896.14379795    0.32E-08   0.13E-04   50 962 1 -0.15E-04   0.40   2.50    LS   YES    0:56:19

      ************************************************************************************************************************
                                                      Wave function printout:
                       occupation of active orbitals, and spin coupling of open shells (u,d: Spin up or down)
      ************************************************************************************************************************

      Note: transformation to natural orbitals
      has been made, which may change the order of the CSFs.

      printout of CI-coefficients larger than  0.05 for root  1
      energy=  -15896.178639
      conf/sym  1111111     Coeff  Weight
             1  22uuuuu  -0.08384 0.00703
             2  2u2uuuu  -0.29761 0.08857
             3  u22uuuu  -0.52048 0.27090
             4  2uu2uuu  -0.15437 0.02383
             5  2uuu2uu   0.08786 0.00772
             6  2uuuu2u   0.33468 0.11201
             7  2uuuuu2  -0.08875 0.00788
             8  u2u2uuu  -0.20292 0.04118
             9  u2uu2uu   0.14596 0.02130
            10  u2uuu2u  -0.33648 0.11322
            11  u2uuuu2  -0.10622 0.01128
            12  uu22uuu   0.06740 0.00454
            13  uu2u2uu  -0.06359 0.00404
            14  uu2uu2u   0.19753 0.03902
            15  uu2uuu2   0.21169 0.04481
            16  uuu22uu   0.08246 0.00680
            17  uuu2u2u  -0.06787 0.00461
            18  uuuu22u   0.24515 0.06010
            19  uuu2uu2   0.10748 0.01155
            20  uuuu2u2  -0.20151 0.04061
            21  uuuuu22  -0.28108 0.07900

      printout of CI-coefficients larger than  0.05 for root  2
      energy=  -15896.178611
      conf/sym  1111111     Coeff  Weight
             2  2u2uuuu   0.34835 0.12135
             3  u22uuuu  -0.12960 0.01680
             5  2uuu2uu  -0.05949 0.00354
             6  2uuuu2u   0.32388 0.10490
             7  2uuuuu2  -0.12518 0.01567
             8  u2u2uuu  -0.11783 0.01388
             9  u2uu2uu   0.16092 0.02589
            10  u2uuu2u   0.51237 0.26252
            11  u2uuuu2  -0.14296 0.02044
            12  uu22uuu   0.13131 0.01724
            13  uu2u2uu  -0.42183 0.17794
            15  uu2uuu2  -0.22651 0.05131
            16  uuu22uu  -0.05331 0.00284
            17  uuu2u2u   0.11357 0.01290
            18  uuuu22u   0.17142 0.02938
            20  uuuu2u2   0.24624 0.06064
            21  uuuuu22  -0.24251 0.05881

      printout of CI-coefficients larger than  0.05 for root  3
      energy=  -15896.178415
      conf/sym  1111111     Coeff  Weight
             2  2u2uuuu   0.18434 0.03398
             3  u22uuuu   0.09501 0.00903
             4  2uu2uuu   0.24730 0.06116
             5  2uuu2uu   0.20061 0.04024
             6  2uuuu2u   0.12839 0.01648
             7  2uuuuu2  -0.13420 0.01801
             8  u2u2uuu   0.25407 0.06455
             9  u2uu2uu   0.20830 0.04339
            10  u2uuu2u   0.08510 0.00724
            11  u2uuuu2   0.18898 0.03571
            13  uu2u2uu   0.43284 0.18735
            14  uu2uu2u   0.48460 0.23484
            16  uuu22uu   0.28938 0.08374
            17  uuu2u2u  -0.28317 0.08018
            18  uuuu22u   0.22652 0.05131
            20  uuuu2u2   0.16519 0.02729

      printout of CI-coefficients larger than  0.05 for root  4
      energy=  -15896.178377
      conf/sym  1111111     Coeff  Weight
             1  22uuuuu  -0.09791 0.00959
             3  u22uuuu   0.13067 0.01707
             4  2uu2uuu  -0.09066 0.00822
             5  2uuu2uu  -0.56490 0.31911
             9  u2uu2uu  -0.10549 0.01113
            11  u2uuuu2  -0.10098 0.01020
            12  uu22uuu   0.35559 0.12645
            13  uu2u2uu  -0.12858 0.01653
            14  uu2uu2u   0.15911 0.02531
            15  uu2uuu2   0.40562 0.16452
            16  uuu22uu   0.13731 0.01885
            17  uuu2u2u  -0.15007 0.02252
            18  uuuu22u   0.13445 0.01808
            19  uuu2uu2   0.20450 0.04182
            20  uuuu2u2   0.27204 0.07400
            21  uuuuu22   0.33665 0.11333

      printout of CI-coefficients larger than  0.05 for root  5
      energy=  -15896.178320
      conf/sym  1111111     Coeff  Weight
             1  22uuuuu   0.41280 0.17041
             2  2u2uuuu  -0.09115 0.00831
             3  u22uuuu  -0.14907 0.02222
             4  2uu2uuu   0.06651 0.00442
             5  2uuu2uu  -0.07815 0.00611
             6  2uuuu2u  -0.24897 0.06199
             8  u2u2uuu   0.32642 0.10655
             9  u2uu2uu   0.17595 0.03096
            10  u2uuu2u  -0.17507 0.03065
            11  u2uuuu2  -0.11345 0.01287
            12  uu22uuu   0.29472 0.08686
            13  uu2u2uu  -0.06483 0.00420
            14  uu2uu2u  -0.16136 0.02604
            15  uu2uuu2  -0.39536 0.15631
            17  uuu2u2u   0.05171 0.00267
            18  uuuu22u   0.46701 0.21810
            19  uuu2uu2   0.12883 0.01660
            20  uuuu2u2  -0.08326 0.00693
            21  uuuuu22   0.16006 0.02562

      printout of CI-coefficients larger than  0.05 for root  6
      energy=  -15896.178241
      conf/sym  1111111     Coeff  Weight
             1  22uuuuu   0.23834 0.05680
             2  2u2uuuu  -0.31615 0.09995
             3  u22uuuu  -0.08927 0.00797
             5  2uuu2uu  -0.12172 0.01482
             6  2uuuu2u   0.26861 0.07215
             7  2uuuuu2   0.12042 0.01450
             9  u2uu2uu   0.29903 0.08942
            10  u2uuu2u   0.19650 0.03861
            11  u2uuuu2  -0.32168 0.10348
            12  uu22uuu  -0.34658 0.12012
            14  uu2uu2u  -0.08680 0.00753
            15  uu2uuu2  -0.08338 0.00695
            16  uuu22uu   0.27124 0.07357
            17  uuu2u2u  -0.25617 0.06562
            18  uuuu22u  -0.20290 0.04117
            19  uuu2uu2  -0.24003 0.05761
            21  uuuuu22   0.35772 0.12796

      printout of CI-coefficients larger than  0.05 for root  7
      energy=  -15896.177731
      conf/sym  1111111     Coeff  Weight
             1  22uuuuu  -0.19699 0.03881
             2  2u2uuuu  -0.27380 0.07497
             4  2uu2uuu   0.33060 0.10929
             5  2uuu2uu  -0.20350 0.04141
             6  2uuuu2u  -0.31736 0.10072
             7  2uuuuu2   0.05465 0.00299
             8  u2u2uuu  -0.29059 0.08444
            10  u2uuu2u   0.21105 0.04454
            11  u2uuuu2  -0.11430 0.01306
            12  uu22uuu   0.36628 0.13416
            13  uu2u2uu   0.17682 0.03127
            14  uu2uu2u   0.12280 0.01508
            15  uu2uuu2  -0.12083 0.01460
            16  uuu22uu   0.19491 0.03799
            19  uuu2uu2  -0.42951 0.18448
            20  uuuu2u2  -0.17923 0.03212
            21  uuuuu22  -0.19475 0.03793

      printout of CI-coefficients larger than  0.05 for root  8
      energy=  -15896.177578
      conf/sym  1111111     Coeff  Weight
             1  22uuuuu   0.28756 0.08269
             2  2u2uuuu   0.22239 0.04946
             4  2uu2uuu  -0.35502 0.12604
             5  2uuu2uu  -0.25773 0.06642
             6  2uuuu2u  -0.25014 0.06257
             7  2uuuuu2  -0.12176 0.01483
             8  u2u2uuu  -0.32217 0.10379
             9  u2uu2uu   0.22424 0.05029
            10  u2uuu2u   0.18657 0.03481
            11  u2uuuu2   0.28776 0.08280
            12  uu22uuu  -0.07964 0.00634
            16  uuu22uu   0.27510 0.07568
            17  uuu2u2u  -0.10431 0.01088
            18  uuuu22u  -0.07704 0.00593
            19  uuu2uu2   0.23710 0.05622
            20  uuuu2u2  -0.40270 0.16217
            21  uuuuu22  -0.07600 0.00578

      printout of CI-coefficients larger than  0.05 for root  9
      energy=  -15896.177217
      conf/sym  1111111     Coeff  Weight
             1  22uuuuu   0.21098 0.04451
             2  2u2uuuu   0.05567 0.00310
             3  u22uuuu  -0.12179 0.01483
             4  2uu2uuu   0.54297 0.29482
             5  2uuu2uu  -0.18505 0.03424
             6  2uuuu2u   0.08584 0.00737
             8  u2u2uuu  -0.27417 0.07517
             9  u2uu2uu  -0.28598 0.08179
            10  u2uuu2u  -0.15470 0.02393
            11  u2uuuu2  -0.16718 0.02795
            12  uu22uuu  -0.14628 0.02140
            13  uu2u2uu   0.05055 0.00256
            14  uu2uu2u   0.16975 0.02882
            15  uu2uuu2  -0.22881 0.05236
            17  uuu2u2u   0.07249 0.00525
            18  uuuu22u  -0.24622 0.06063
            19  uuu2uu2   0.46886 0.21983

      printout of CI-coefficients larger than  0.05 for root 10
      energy=  -15896.176121
      conf/sym  1111111     Coeff  Weight
             1  22uuuuu   0.30310 0.09187
             2  2u2uuuu  -0.20537 0.04218
             3  u22uuuu   0.14730 0.02170
             4  2uu2uuu  -0.10243 0.01049
             5  2uuu2uu  -0.09852 0.00971
             6  2uuuu2u   0.28362 0.08044
             8  u2u2uuu  -0.28639 0.08202
             9  u2uu2uu   0.05905 0.00349
            10  u2uuu2u  -0.17338 0.03006
            11  u2uuuu2   0.33192 0.11017
            12  uu22uuu   0.16479 0.02716
            13  uu2u2uu   0.27680 0.07662
            14  uu2uu2u  -0.29931 0.08958
            15  uu2uuu2  -0.10657 0.01136
            16  uuu22uu   0.12446 0.01549
            17  uuu2u2u   0.19591 0.03838
            19  uuu2uu2  -0.08750 0.00766
            20  uuuu2u2   0.46928 0.22023
            21  uuuuu22  -0.17608 0.03100

      printout of CI-coefficients larger than  0.05 for root 11
      energy=  -15896.176104
      conf/sym  1111111     Coeff  Weight
             1  22uuuuu   0.19994 0.03998
             2  2u2uuuu  -0.09018 0.00813
             3  u22uuuu   0.35878 0.12873
             4  2uu2uuu  -0.06352 0.00403
             5  2uuu2uu   0.32634 0.10650
             6  2uuuu2u  -0.19574 0.03832
             7  2uuuuu2   0.17866 0.03192
             9  u2uu2uu   0.05095 0.00260
            10  u2uuu2u  -0.09509 0.00904
            11  u2uuuu2  -0.36769 0.13520
            12  uu22uuu   0.17444 0.03043
            13  uu2u2uu  -0.27777 0.07716
            15  uu2uuu2   0.08745 0.00765
            16  uuu22uu   0.28420 0.08077
            17  uuu2u2u  -0.18846 0.03552
            18  uuuu22u  -0.19535 0.03816
            19  uuu2uu2   0.19212 0.03691
            20  uuuu2u2   0.15004 0.02251
            21  uuuuu22  -0.40540 0.16435

      printout of CI-coefficients larger than  0.05 for root 12
      energy=  -15896.144622
      conf/sym  1111111     Coeff  Weight
             1  22uuuuu  -0.15687 0.02461
             2  2u2uuuu   0.16042 0.02573
             3  u22uuuu   0.27305 0.07456
             4  2uu2uuu   0.06832 0.00467
             5  2uuu2uu  -0.25887 0.06702
             6  2uuuu2u   0.19919 0.03968
             7  2uuuuu2   0.24859 0.06180
             9  u2uu2uu  -0.18747 0.03514
            10  u2uuu2u  -0.36382 0.13237
            11  u2uuuu2   0.16745 0.02804
            12  uu22uuu  -0.24888 0.06194
            13  uu2u2uu  -0.29178 0.08513
            15  uu2uuu2  -0.27853 0.07758
            16  uuu22uu   0.21063 0.04437
            17  uuu2u2u  -0.24062 0.05790
            18  uuuu22u   0.26795 0.07180
            19  uuu2uu2  -0.22528 0.05075
            20  uuuu2u2  -0.16202 0.02625
            21  uuuuu22  -0.17108 0.02927

      printout of CI-coefficients larger than  0.05 for root 13
      energy=  -15896.144040
      conf/sym  1111111     Coeff  Weight
             1  22uuuuu  -0.35084 0.12309
             3  u22uuuu   0.08505 0.00723
             4  2uu2uuu   0.39462 0.15573
             5  2uuu2uu   0.23250 0.05406
             8  u2u2uuu  -0.19035 0.03623
             9  u2uu2uu   0.31523 0.09937
            10  u2uuu2u   0.05682 0.00323
            11  u2uuuu2   0.19691 0.03877
            13  uu2u2uu  -0.12302 0.01513
            14  uu2uu2u  -0.46535 0.21655
            15  uu2uuu2   0.12353 0.01526
            16  uuu22uu   0.21944 0.04815
            18  uuuu22u   0.14851 0.02205
            19  uuu2uu2   0.33345 0.11119
            20  uuuu2u2  -0.07890 0.00623
            21  uuuuu22   0.20142 0.04057

      printout of CI-coefficients larger than  0.05 for root 14
      energy=  -15896.143807
      conf/sym  1111111     Coeff  Weight
             2  2u2uuuu  -0.42361 0.17945
             4  2uu2uuu   0.05693 0.00324
             5  2uuu2uu  -0.11805 0.01394
             6  2uuuu2u   0.17858 0.03189
             7  2uuuuu2  -0.26658 0.07107
             8  u2u2uuu   0.35658 0.12715
             9  u2uu2uu  -0.15511 0.02406
            10  u2uuu2u   0.22871 0.05231
            11  u2uuuu2   0.33886 0.11482
            12  uu22uuu   0.18942 0.03588
            13  uu2u2uu  -0.14787 0.02186
            14  uu2uu2u  -0.08265 0.00683
            15  uu2uuu2  -0.13995 0.01959
            16  uuu22uu  -0.13972 0.01952
            17  uuu2u2u  -0.34856 0.12149
            18  uuuu22u  -0.25807 0.06660
            19  uuu2uu2   0.17182 0.02952
            20  uuuu2u2  -0.14120 0.01994
            21  uuuuu22  -0.19788 0.03916

      printout of CI-coefficients larger than  0.05 for root 15
      energy=  -15896.143790
      conf/sym  1111111     Coeff  Weight
             1  22uuuuu   0.27138 0.07364
             2  2u2uuuu  -0.27837 0.07749
             3  u22uuuu   0.09919 0.00984
             4  2uu2uuu   0.17503 0.03064
             6  2uuuu2u  -0.13496 0.01822
             7  2uuuuu2   0.36955 0.13657
             8  u2u2uuu  -0.19550 0.03822
             9  u2uu2uu   0.09580 0.00918
            10  u2uuu2u   0.19250 0.03706
            11  u2uuuu2   0.25830 0.06672
            12  uu22uuu  -0.23572 0.05556
            13  uu2u2uu  -0.17916 0.03210
            14  uu2uu2u   0.24387 0.05947
            15  uu2uuu2   0.24103 0.05809
            16  uuu22uu  -0.44604 0.19896
            17  uuu2u2u  -0.09159 0.00839
            18  uuuu22u   0.27772 0.07713
            20  uuuu2u2   0.08889 0.00790
            21  uuuuu22  -0.06740 0.00454

      printout of CI-coefficients larger than  0.05 for root 16
      energy=  -15896.143425
      conf/sym  1111111     Coeff  Weight
             1  22uuuuu   0.33163 0.10998
             2  2u2uuuu   0.18626 0.03469
             3  u22uuuu   0.12395 0.01536
             4  2uu2uuu   0.20859 0.04351
             5  2uuu2uu   0.22352 0.04996
             6  2uuuu2u   0.23724 0.05628
             7  2uuuuu2  -0.11871 0.01409
             8  u2u2uuu  -0.11883 0.01412
             9  u2uu2uu   0.05146 0.00265
            10  u2uuu2u  -0.20293 0.04118
            11  u2uuuu2   0.16476 0.02715
            12  uu22uuu   0.38669 0.14953
            13  uu2u2uu  -0.27039 0.07311
            14  uu2uu2u   0.14482 0.02097
            15  uu2uuu2   0.16197 0.02623
            16  uuu22uu  -0.08225 0.00676
            18  uuuu22u  -0.21449 0.04601
            19  uuu2uu2  -0.32406 0.10502
            20  uuuu2u2  -0.28511 0.08129
            21  uuuuu22   0.28616 0.08189

      printout of CI-coefficients larger than  0.05 for root 17
      energy=  -15896.143357
      conf/sym  1111111     Coeff  Weight
             1  22uuuuu  -0.08018 0.00643
             2  2u2uuuu  -0.08296 0.00688
             3  u22uuuu  -0.10057 0.01012
             4  2uu2uuu  -0.28452 0.08095
             5  2uuu2uu   0.38024 0.14459
             7  2uuuuu2   0.10565 0.01116
             8  u2u2uuu  -0.35614 0.12684
             9  u2uu2uu  -0.38233 0.14618
            10  u2uuu2u   0.11107 0.01234
            11  u2uuuu2   0.07629 0.00582
            12  uu22uuu   0.14990 0.02247
            14  uu2uu2u   0.12084 0.01460
            15  uu2uuu2  -0.37344 0.13946
            17  uuu2u2u  -0.32295 0.10430
            18  uuuu22u   0.10831 0.01173
            19  uuu2uu2   0.06572 0.00432
            20  uuuu2u2   0.13685 0.01873
            21  uuuuu22   0.35933 0.12911

      printout of CI-coefficients larger than  0.05 for root 18
      energy=  -15896.143342
      conf/sym  1111111     Coeff  Weight
             2  2u2uuuu   0.09930 0.00986
             3  u22uuuu  -0.44956 0.20210
             4  2uu2uuu   0.14083 0.01983
             6  2uuuu2u  -0.42439 0.18011
             7  2uuuuu2  -0.18919 0.03579
             9  u2uu2uu   0.08171 0.00668
            10  u2uuu2u  -0.22045 0.04860
            11  u2uuuu2   0.25297 0.06400
            12  uu22uuu  -0.11508 0.01324
            13  uu2u2uu  -0.29629 0.08779
            16  uuu22uu   0.11819 0.01397
            17  uuu2u2u  -0.22332 0.04987
            18  uuuu22u  -0.19284 0.03719
            19  uuu2uu2  -0.20814 0.04332
            20  uuuu2u2   0.42727 0.18256

      printout of CI-coefficients larger than  0.05 for root 19
      energy=  -15896.020041
      conf/sym  1111111     Coeff  Weight
             1  22uuuuu  -0.11405 0.01301
             2  2u2uuuu  -0.36360 0.13221
             3  u22uuuu   0.23880 0.05703
             4  2uu2uuu  -0.06734 0.00454
             5  2uuu2uu   0.05678 0.00322
             6  2uuuu2u  -0.08170 0.00667
             7  2uuuuu2  -0.33326 0.11106
            11  u2uuuu2   0.11158 0.01245
            12  uu22uuu  -0.19924 0.03970
            13  uu2u2uu  -0.31421 0.09873
            14  uu2uu2u   0.36618 0.13409
            15  uu2uuu2  -0.15552 0.02418
            16  uuu22uu   0.23774 0.05652
            17  uuu2u2u   0.51720 0.26750
            18  uuuu22u   0.05201 0.00270
            20  uuuu2u2   0.05769 0.00333
            21  uuuuu22   0.16541 0.02736

      printout of CI-coefficients larger than  0.05 for root 20
      energy=  -15896.019708
      conf/sym  1111111     Coeff  Weight
             1  22uuuuu  -0.11239 0.01263
             3  u22uuuu   0.33593 0.11285
             5  2uuu2uu  -0.06284 0.00395
             6  2uuuu2u  -0.07537 0.00568
             7  2uuuuu2  -0.52672 0.27743
             8  u2u2uuu  -0.28479 0.08111
             9  u2uu2uu   0.26443 0.06992
            10  u2uuu2u  -0.21035 0.04425
            11  u2uuuu2  -0.26216 0.06873
            12  uu22uuu  -0.08384 0.00703
            13  uu2u2uu   0.07771 0.00604
            15  uu2uuu2  -0.13052 0.01704
            16  uuu22uu  -0.41062 0.16861
            17  uuu2u2u  -0.32885 0.10814
            18  uuuu22u   0.08856 0.00784
            20  uuuu2u2   0.06468 0.00418

      printout of CI-coefficients larger than  0.05 for root 21
      energy=  -15896.018272
      conf/sym  1111111     Coeff  Weight
             1  22uuuuu  -0.30218 0.09132
             4  2uu2uuu  -0.10755 0.01157
             5  2uuu2uu  -0.10986 0.01207
             7  2uuuuu2   0.41396 0.17136
             9  u2uu2uu   0.49395 0.24398
            10  u2uuu2u  -0.17921 0.03211
            11  u2uuuu2   0.10168 0.01034
            12  uu22uuu   0.19546 0.03821
            14  uu2uu2u   0.27248 0.07424
            15  uu2uuu2  -0.33085 0.10946
            16  uuu22uu  -0.20929 0.04380
            18  uuuu22u  -0.36445 0.13282
            19  uuu2uu2   0.13129 0.01724
            20  uuuu2u2   0.05444 0.00296
            21  uuuuu22   0.05194 0.00270

      Natural orbitals and occupation numbers for root  1
      sym 1:   1.403210   1.582561   1.582561   1.000000   1.014228   1.403210   1.014228

      Natural orbitals and occupation numbers for root  2
      sym 1:   1.027978   1.610243   1.361779   1.000000   1.361779   1.610243   1.027978

      Natural orbitals and occupation numbers for root  3
      sym 1:   1.000000   1.060906   1.655852   1.283242   1.655852   1.283242   1.060906

      Natural orbitals and occupation numbers for root  4
      sym 1:   1.392342   1.016883   1.590776   1.000000   1.590776   1.016883   1.392342

      Natural orbitals and occupation numbers for root  5
      sym 1:   1.000000   1.669139   1.061811   1.061811   1.269050   1.669139   1.269050

      Natural orbitals and occupation numbers for root  6
      sym 1:   1.000000   1.614243   1.038035   1.614243   1.038035   1.347722   1.347722

      Natural orbitals and occupation numbers for root  7
      sym 1:   1.581282   1.012299   1.406419   1.581282   1.406419   1.012299   1.000000

      Natural orbitals and occupation numbers for root  8
      sym 1:   1.426627   1.564042   1.009331   1.426627   1.009331   1.000000   1.564042

      Natural orbitals and occupation numbers for root  9
      sym 1:   1.639021   1.220325   1.000000   1.639021   1.140654   1.220325   1.140654

      Natural orbitals and occupation numbers for root 10
      sym 1:   1.000000   1.513797   1.513797   1.002981   1.002981   1.483223   1.483223

      Natural orbitals and occupation numbers for root 11
      sym 1:   1.006602   1.527637   1.527637   1.006602   1.000000   1.465761   1.465761

      Natural orbitals and occupation numbers for root 12
      sym 1:   1.000000   1.340161   1.327885   1.340161   1.331954   1.331954   1.327885

      Natural orbitals and occupation numbers for root 13
      sym 1:   1.356579   1.324506   1.000000   1.356579   1.324506   1.318915   1.318915

      Natural orbitals and occupation numbers for root 14
      sym 1:   1.346319   1.333875   1.319806   1.346319   1.000000   1.319806   1.333875

      Natural orbitals and occupation numbers for root 15
      sym 1:   1.350136   1.000000   1.322301   1.327563   1.327563   1.350136   1.322301

      Natural orbitals and occupation numbers for root 16
      sym 1:   1.355039   1.000000   1.317539   1.317539   1.327422   1.327422   1.355039

      Natural orbitals and occupation numbers for root 17
      sym 1:   1.356011   1.310240   1.000000   1.356011   1.310240   1.333748   1.333748

      Natural orbitals and occupation numbers for root 18
      sym 1:   1.372690   1.372690   1.342717   1.000000   1.342717   1.284593   1.284593

      Natural orbitals and occupation numbers for root 19
      sym 1:   1.294094   1.000000   1.294094   1.632690   1.073216   1.632690   1.073216

      Natural orbitals and occupation numbers for root 20
      sym 1:   1.072319   1.635330   1.000000   1.635330   1.292351   1.072319   1.292351

      Natural orbitals and occupation numbers for root 21
      sym 1:   1.642421   1.642421   1.068546   1.000000   1.289033   1.068546   1.289033

      ************************************************************************************************************************
      *                                                                                                                      *
      *                                                    Final results                                                     *
      *                                                                                                                      *
      ************************************************************************************************************************


++    Wave function specifications:
      -----------------------------

      Number of closed shell electrons         462
      Number of electrons in active shells       9
      Max number of holes in RAS1 space          0
      Max nr of electrons in RAS3 space          0
      Number of inactive orbitals              231
      Number of active orbitals                  7
      Number of secondary orbitals             726
      Spin quantum number                      2.5
      State symmetry                             1
--

++    Orbital specifications:
      -----------------------

      Symmetry species                           1
                                                 a
      Frozen orbitals                            0
      Inactive orbitals                        231
      Active orbitals                            7
      RAS1 orbitals                              0
      RAS2 orbitals                              7
      RAS3 orbitals                              0
      Secondary orbitals                       726
      Deleted orbitals                           0
      Number of basis functions                964
--

++    CI expansion specifications:
      ----------------------------

      Number of CSFs                            21
      Number of determinants                    21
      Number of root(s) required                21
      CI roots used                              1     2     3     4     5     6     7     8     9    10
                                                11    12    13    14    15    16    17    18    19    20
                                                21
      weights                                0.048 0.048 0.048 0.048 0.048 0.048 0.048 0.048 0.048 0.048
                                             0.048 0.048 0.048 0.048 0.048 0.048 0.048 0.048 0.048 0.048
                                             0.048
      highest root included in the CI           21
      Root passed to geometry opt.              21
--

++    Final optimization conditions:
      ------------------------------

      Average CI energy                          -15896.14379795
      RASSCF energy for state 21                 -15896.01827229
      Super-CI energy                                -0.00000000
      RASSCF energy change                            0.00000000
      Max change in MO coefficients               0.109E-04
      Max non-diagonal density matrix element     0.133E-04
      Maximum BLB matrix element                 -0.146E-04
      (orbital pair  50, 962 in symmetry   1)
      Norm of electronic gradient            0.376E+00
--


      Final state energy(ies):
      ------------------------

::    RASSCF root number  1 Total energy: -15896.17863875
::    RASSCF root number  2 Total energy: -15896.17861055
::    RASSCF root number  3 Total energy: -15896.17841456
::    RASSCF root number  4 Total energy: -15896.17837660
::    RASSCF root number  5 Total energy: -15896.17831993
::    RASSCF root number  6 Total energy: -15896.17824129
::    RASSCF root number  7 Total energy: -15896.17773081
::    RASSCF root number  8 Total energy: -15896.17757845
::    RASSCF root number  9 Total energy: -15896.17721714
::    RASSCF root number 10 Total energy: -15896.17612064
::    RASSCF root number 11 Total energy: -15896.17610398
::    RASSCF root number 12 Total energy: -15896.14462232
::    RASSCF root number 13 Total energy: -15896.14403970
::    RASSCF root number 14 Total energy: -15896.14380694
::    RASSCF root number 15 Total energy: -15896.14378954
::    RASSCF root number 16 Total energy: -15896.14342526
::    RASSCF root number 17 Total energy: -15896.14335735
::    RASSCF root number 18 Total energy: -15896.14334173
::    RASSCF root number 19 Total energy: -15896.02004076
::    RASSCF root number 20 Total energy: -15896.01970835
::    RASSCF root number 21 Total energy: -15896.01827229

++    Molecular orbitals:
      -------------------

      Pseudonatural active orbitals and approximate occupation numbers


      MOLECULAR ORBITALS FOR SYMMETRY SPECIES 1: a  

      INDEX  ENERGY  OCCUPATION COEFFICIENTS ...
          1-1983.8926    2.0000                                                                                                           
                 1 DY1    1s     ( 1.0000)
          2 -335.2065    2.0000                                                                                                           
                 2 DY1    2s     ( 1.0000)
          3 -298.0174    2.0000                                                                                                           
                16 DY1    2py    ( 0.1527)  23 DY1    2pz    ( 0.9870)
          4 -298.0173    2.0000                                                                                                           
                 9 DY1    2px    ( 0.9672)  16 DY1    2py    ( 0.2390)
          5 -298.0173    2.0000                                                                                                           
                 9 DY1    2px    (-0.2490)  16 DY1    2py    ( 0.9589)  23 DY1    2pz    (-0.1357)
          6  -76.6916    2.0000                                                                                                           
                 3 DY1    3s     ( 1.0000)
          7  -64.9699    2.0000                                                                                                           
                17 DY1    3py    ( 0.1529)  24 DY1    3pz    ( 0.9870)
          8  -64.9698    2.0000                                                                                                           
                10 DY1    3px    ( 0.8587)  17 DY1    3py    ( 0.4982)  24 DY1    3pz    (-0.1204)
          9  -64.9698    2.0000                                                                                                           
                10 DY1    3px    (-0.5101)  17 DY1    3py    ( 0.8535)  24 DY1    3pz    (-0.1065)
         10  -49.5160    2.0000                                                                                                           
                30 DY1    3d2-   ( 0.1428)  35 DY1    3d1-   ( 0.2045)  40 DY1    3d0    (-0.5492)  45 DY1    3d1+   ( 0.7871)
                50 DY1    3d2+   ( 0.1290)
         11  -49.5160    2.0000                                                                                                           
                30 DY1    3d2-   ( 0.1336)  35 DY1    3d1-   ( 0.9047)  40 DY1    3d0    (-0.1321)  45 DY1    3d1+   (-0.3161)
                50 DY1    3d2+   (-0.2151)
         12  -49.5158    2.0000                                                                                                           
                30 DY1    3d2-   (-0.8311)  35 DY1    3d1-   ( 0.3015)  40 DY1    3d0    ( 0.2174)  45 DY1    3d1+   ( 0.1618)
                50 DY1    3d2+   ( 0.3807)
         13  -49.5158    2.0000                                                                                                           
                30 DY1    3d2-   ( 0.3540)  35 DY1    3d1-   ( 0.2100)  40 DY1    3d0    ( 0.7959)  45 DY1    3d1+   ( 0.4425)
      
         14  -49.5158    2.0000                                                                                                           
                30 DY1    3d2-   ( 0.3817)  45 DY1    3d1+   (-0.2420)  50 DY1    3d2+   ( 0.8893)
         15  -26.2951    2.0000                                                                                                           
               909 F21    1s     ( 1.0001)
         16  -26.2872    2.0000                                                                                                           
               923 F22    1s     ( 1.0001)
         17  -26.2866    2.0000                                                                                                           
               867 F18    1s     ( 1.0001)
         18  -26.2855    2.0000                                                                                                           
               727 F8     1s     ( 1.0001)
         19  -26.2854    2.0000                                                                                                           
               629 F1     1s     (-1.0000)
         20  -26.2848    2.0000                                                                                                           
               881 F19    1s     ( 1.0001)
         21  -26.2832    2.0000                                                                                                           
               811 F14    1s     ( 1.0000)
         22  -26.2830    2.0000                                                                                                           
               839 F16    1s     (-1.0000)
         23  -26.2824    2.0000                                                                                                           
               937 F23    1s     (-1.0000)
         24  -26.2818    2.0000                                                                                                           
               755 F10    1s     ( 1.0000)
         25  -26.2812    2.0000                                                                                                           
               657 F3     1s     (-1.0001)
         26  -26.2806    2.0000                                                                                                           
               713 F7     1s     (-1.0000)
         27  -26.2806    2.0000                                                                                                           
               643 F2     1s     ( 1.0001)
         28  -26.2790    2.0000                                                                                                           
               741 F9     1s     ( 1.0001)
         29  -26.2784    2.0000                                                                                                           
               671 F4     1s     (-1.0000)
         30  -26.2783    2.0000                                                                                                           
               951 F24    1s     ( 1.0001)
         31  -26.2775    2.0000                                                                                                           
               853 F17    1s     ( 1.0000)
         32  -26.2729    2.0000                                                                                                           
               769 F11    1s     ( 1.0001)
         33  -26.2724    2.0000                                                                                                           
               825 F15    1s     ( 1.0000)
         34  -26.2710    2.0000                                                                                                           
               895 F20    1s     ( 1.0001)
         35  -26.2681    2.0000                                                                                                           
               797 F13    1s     ( 1.0000)
         36  -26.2666    2.0000                                                                                                           
               783 F12    1s     (-1.0000)
         37  -26.2653    2.0000                                                                                                           
               699 F6     1s     (-1.0001)
         38  -26.2649    2.0000                                                                                                           
               685 F5     1s     ( 1.0001)
         39  -20.5058    2.0000                                                                                                           
               225 O5     1s     ( 0.9998)
         40  -20.5009    2.0000                                                                                                           
               315 O8     1s     ( 0.9998)
         41  -20.5005    2.0000                                                                                                           
               285 O7     1s     ( 0.9997)
         42  -20.4996    2.0000                                                                                                           
               135 O2     1s     (-0.9998)
         43  -20.4962    2.0000                                                                                                           
               195 O4     1s     (-0.9998)
         44  -20.4948    2.0000                                                                                                           
               255 O6     1s     (-0.9998)
         45  -20.4917    2.0000                                                                                                           
               105 O1     1s     (-0.9997)
         46  -20.4914    2.0000                                                                                                           
               165 O3     1s     ( 0.9997)
         47  -16.2101    2.0000                                                                                                           
                 4 DY1    4s     ( 0.9994)
         48  -12.2337    2.0000                                                                                                           
                11 DY1    4px    ( 0.1151)  18 DY1    4py    ( 0.1477)  25 DY1    4pz    ( 0.9823)
         49  -12.2333    2.0000                                                                                                           
                18 DY1    4py    ( 0.9878)  25 DY1    4pz    (-0.1520)
         50  -12.2332    2.0000                                                                                                           
                11 DY1    4px    ( 0.9928)  25 DY1    4pz    (-0.1093)
         51  -11.4434    2.0000                                                                                                           
               611 C20    1s     ( 0.9998)
         52  -11.4415    2.0000                                                                                                           
               555 C16    1s     ( 0.9998)
         53  -11.4406    2.0000                                                                                                           
               527 C14    1s     ( 0.9998)
         54  -11.4400    2.0000                                                                                                           
               499 C12    1s     ( 0.9998)
         55  -11.4369    2.0000                                                                                                           
               443 C8     1s     ( 0.9997)
         56  -11.4359    2.0000                                                                                                           
               457 C9     1s     ( 0.9998)
         57  -11.4339    2.0000                                                                                                           
               485 C11    1s     (-0.9998)
         58  -11.4310    2.0000                                                                                                           
               541 C15    1s     ( 0.9998)
         59  -11.2995    2.0000                                                                                                           
               513 C13    1s     (-0.9997)
[...]
   6      0.577350269190     0.577350269190     0.577350269190     0.006101255491
   7     -0.577350269190     0.577350269190     0.577350269190     0.006101255491
   8      0.577350269190    -0.577350269190     0.577350269190     0.006101255491
   9     -0.577350269190    -0.577350269190     0.577350269190     0.006101255491
  10      0.706896546391     0.706896546391     0.024383301669     0.003242209201
  11     -0.706896546391     0.706896546391     0.024383301669     0.003242209201
  12      0.706896546391    -0.706896546391     0.024383301669     0.003242209201
  13     -0.706896546391    -0.706896546391     0.024383301669     0.003242209201
  14      0.706896546391     0.024383301669     0.706896546391     0.003242209201
  15     -0.706896546391     0.024383301669     0.706896546391     0.003242209201
  16      0.706896546391    -0.024383301669     0.706896546391     0.003242209201
  17     -0.706896546391    -0.024383301669     0.706896546391     0.003242209201
  18      0.024383301669     0.706896546391     0.706896546391     0.003242209201
  19     -0.024383301669     0.706896546391     0.706896546391     0.003242209201
  20      0.024383301669    -0.706896546391     0.706896546391     0.003242209201
  21     -0.024383301669    -0.706896546391     0.706896546391     0.003242209201
  22      0.479468262571     0.479468262571     0.734996850588     0.006011402970
  23     -0.479468262571     0.479468262571     0.734996850588     0.006011402970
  24      0.479468262571    -0.479468262571     0.734996850588     0.006011402970
  25     -0.479468262571    -0.479468262571     0.734996850588     0.006011402970
  26      0.479468262571     0.734996850588     0.479468262571     0.006011402970
  27     -0.479468262571     0.734996850588     0.479468262571     0.006011402970
  28      0.479468262571    -0.734996850588     0.479468262571     0.006011402970
  29     -0.479468262571    -0.734996850588     0.479468262571     0.006011402970
  30      0.734996850588     0.479468262571     0.479468262571     0.006011402970
  31     -0.734996850588     0.479468262571     0.479468262571     0.006011402970
  32      0.734996850588    -0.479468262571     0.479468262571     0.006011402970
  33     -0.734996850588    -0.479468262571     0.479468262571     0.006011402970
  34      0.192753315488     0.192753315488     0.962129055136     0.005981985059
  35     -0.192753315488     0.192753315488     0.962129055136     0.005981985059
  36      0.192753315488    -0.192753315488     0.962129055136     0.005981985059
  37     -0.192753315488    -0.192753315488     0.962129055136     0.005981985059
  38      0.192753315488     0.962129055136     0.192753315488     0.005981985059
  39     -0.192753315488     0.962129055136     0.192753315488     0.005981985059
  40      0.192753315488    -0.962129055136     0.192753315488     0.005981985059
  41     -0.192753315488    -0.962129055136     0.192753315488     0.005981985059
  42      0.962129055136     0.192753315488     0.192753315488     0.005981985059
  43     -0.962129055136     0.192753315488     0.192753315488     0.005981985059
  44      0.962129055136    -0.192753315488     0.192753315488     0.005981985059
  45     -0.962129055136    -0.192753315488     0.192753315488     0.005981985059
  46      0.693035796133     0.693035796133     0.198501311223     0.005964341288
  47     -0.693035796133     0.693035796133     0.198501311223     0.005964341288
  48      0.693035796133    -0.693035796133     0.198501311223     0.005964341288
  49     -0.693035796133    -0.693035796133     0.198501311223     0.005964341288
  50      0.693035796133     0.198501311223     0.693035796133     0.005964341288
  51     -0.693035796133     0.198501311223     0.693035796133     0.005964341288
  52      0.693035796133    -0.198501311223     0.693035796133     0.005964341288
  53     -0.693035796133    -0.198501311223     0.693035796133     0.005964341288
  54      0.198501311223     0.693035796133     0.693035796133     0.005964341288
  55     -0.198501311223     0.693035796133     0.693035796133     0.005964341288
  56      0.198501311223    -0.693035796133     0.693035796133     0.005964341288
  57     -0.198501311223    -0.693035796133     0.693035796133     0.005964341288
  58      0.360830211552     0.360830211552     0.860001812128     0.005443128475
  59     -0.360830211552     0.360830211552     0.860001812128     0.005443128475
  60      0.360830211552    -0.360830211552     0.860001812128     0.005443128475
  61     -0.360830211552    -0.360830211552     0.860001812128     0.005443128475
  62      0.360830211552     0.860001812128     0.360830211552     0.005443128475
  63     -0.360830211552     0.860001812128     0.360830211552     0.005443128475
  64      0.360830211552    -0.860001812128     0.360830211552     0.005443128475
  65     -0.360830211552    -0.860001812128     0.360830211552     0.005443128475
  66      0.860001812128     0.360830211552     0.360830211552     0.005443128475
  67     -0.860001812128     0.360830211552     0.360830211552     0.005443128475
  68      0.860001812128    -0.360830211552     0.360830211552     0.005443128475
  69     -0.860001812128    -0.360830211552     0.360830211552     0.005443128475
  70      0.649848616150     0.649848616150     0.394199888606     0.006067027592
  71     -0.649848616150     0.649848616150     0.394199888606     0.006067027592
  72      0.649848616150    -0.649848616150     0.394199888606     0.006067027592
  73     -0.649848616150    -0.649848616150     0.394199888606     0.006067027592
  74      0.649848616150     0.394199888606     0.649848616150     0.006067027592
  75     -0.649848616150     0.394199888606     0.649848616150     0.006067027592
  76      0.649848616150    -0.394199888606     0.649848616150     0.006067027592
  77     -0.649848616150    -0.394199888606     0.649848616150     0.006067027592
  78      0.394199888606     0.649848616150     0.649848616150     0.006067027592
  79     -0.394199888606     0.649848616150     0.649848616150     0.006067027592
  80      0.394199888606    -0.649848616150     0.649848616150     0.006067027592
  81     -0.394199888606    -0.649848616150     0.649848616150     0.006067027592
  82      0.193294501323     0.981140782843     0.000000000000     0.003007949555
  83     -0.193294501323     0.981140782843     0.000000000000     0.003007949555
  84      0.193294501323    -0.981140782843     0.000000000000     0.003007949555
  85     -0.193294501323    -0.981140782843     0.000000000000     0.003007949555
  86      0.981140782843     0.193294501323     0.000000000000     0.003007949555
  87     -0.981140782843     0.193294501323     0.000000000000     0.003007949555
  88      0.981140782843    -0.193294501323     0.000000000000     0.003007949555
  89     -0.981140782843    -0.193294501323     0.000000000000     0.003007949555
  90      0.193294501323     0.000000000000     0.981140782843     0.006015899110
  91     -0.193294501323     0.000000000000     0.981140782843     0.006015899110
  92      0.981140782843     0.000000000000     0.193294501323     0.006015899110
  93     -0.981140782843     0.000000000000     0.193294501323     0.006015899110
  94      0.000000000000     0.193294501323     0.981140782843     0.006015899110
  95      0.000000000000    -0.193294501323     0.981140782843     0.006015899110
  96      0.000000000000     0.981140782843     0.193294501323     0.006015899110
  97      0.000000000000    -0.981140782843     0.193294501323     0.006015899110
  98      0.380049491990     0.924966152699     0.000000000000     0.002881964603
  99     -0.380049491990     0.924966152699     0.000000000000     0.002881964603
 100      0.380049491990    -0.924966152699     0.000000000000     0.002881964603
 101     -0.380049491990    -0.924966152699     0.000000000000     0.002881964603
 102      0.924966152699     0.380049491990     0.000000000000     0.002881964603
 103     -0.924966152699     0.380049491990     0.000000000000     0.002881964603
 104      0.924966152699    -0.380049491990     0.000000000000     0.002881964603
 105     -0.924966152699    -0.380049491990     0.000000000000     0.002881964603
 106      0.380049491990     0.000000000000     0.924966152699     0.005763929206
 107     -0.380049491990     0.000000000000     0.924966152699     0.005763929206
 108      0.924966152699     0.000000000000     0.380049491990     0.005763929206
 109     -0.924966152699     0.000000000000     0.380049491990     0.005763929206
 110      0.000000000000     0.380049491990     0.924966152699     0.005763929206
 111      0.000000000000    -0.380049491990     0.924966152699     0.005763929206
 112      0.000000000000     0.924966152699     0.380049491990     0.005763929206
 113      0.000000000000    -0.924966152699     0.380049491990     0.005763929206
 114      0.289955882550     0.793453785658     0.535123047718     0.005916715253
 115     -0.289955882550     0.793453785658     0.535123047718     0.005916715253
 116      0.289955882550    -0.793453785658     0.535123047718     0.005916715253
 117     -0.289955882550    -0.793453785658     0.535123047718     0.005916715253
 118      0.289955882550     0.535123047718     0.793453785658     0.005916715253
 119     -0.289955882550     0.535123047718     0.793453785658     0.005916715253
 120      0.289955882550    -0.535123047718     0.793453785658     0.005916715253
 121     -0.289955882550    -0.535123047718     0.793453785658     0.005916715253
 122      0.793453785658     0.289955882550     0.535123047718     0.005916715253
 123     -0.793453785658     0.289955882550     0.535123047718     0.005916715253
 124      0.793453785658    -0.289955882550     0.535123047718     0.005916715253
 125     -0.793453785658    -0.289955882550     0.535123047718     0.005916715253
 126      0.793453785658     0.535123047718     0.289955882550     0.005916715253
 127     -0.793453785658     0.535123047718     0.289955882550     0.005916715253
 128      0.793453785658    -0.535123047718     0.289955882550     0.005916715253
 129     -0.793453785658    -0.535123047718     0.289955882550     0.005916715253
 130      0.535123047718     0.289955882550     0.793453785658     0.005916715253
 131     -0.535123047718     0.289955882550     0.793453785658     0.005916715253
 132      0.535123047718    -0.289955882550     0.793453785658     0.005916715253
 133     -0.535123047718    -0.289955882550     0.793453785658     0.005916715253
 134      0.535123047718     0.793453785658     0.289955882550     0.005916715253
 135     -0.535123047718     0.793453785658     0.289955882550     0.005916715253
 136      0.535123047718    -0.793453785658     0.289955882550     0.005916715253
 137     -0.535123047718    -0.793453785658     0.289955882550     0.005916715253
 138      0.096841214551     0.828080150669     0.552182074349     0.006072040053
 139     -0.096841214551     0.828080150669     0.552182074349     0.006072040053
 140      0.096841214551    -0.828080150669     0.552182074349     0.006072040053
 141     -0.096841214551    -0.828080150669     0.552182074349     0.006072040053
 142      0.096841214551     0.552182074349     0.828080150669     0.006072040053
 143     -0.096841214551     0.552182074349     0.828080150669     0.006072040053
 144      0.096841214551    -0.552182074349     0.828080150669     0.006072040053
 145     -0.096841214551    -0.552182074349     0.828080150669     0.006072040053
 146      0.828080150669     0.096841214551     0.552182074349     0.006072040053
 147     -0.828080150669     0.096841214551     0.552182074349     0.006072040053
 148      0.828080150669    -0.096841214551     0.552182074349     0.006072040053
 149     -0.828080150669    -0.096841214551     0.552182074349     0.006072040053
 150      0.828080150669     0.552182074349     0.096841214551     0.006072040053
 151     -0.828080150669     0.552182074349     0.096841214551     0.006072040053
 152      0.828080150669    -0.552182074349     0.096841214551     0.006072040053
 153     -0.828080150669    -0.552182074349     0.096841214551     0.006072040053
 154      0.552182074349     0.096841214551     0.828080150669     0.006072040053
 155     -0.552182074349     0.096841214551     0.828080150669     0.006072040053
 156      0.552182074349    -0.096841214551     0.828080150669     0.006072040053
 157     -0.552182074349    -0.096841214551     0.828080150669     0.006072040053
 158      0.552182074349     0.828080150669     0.096841214551     0.006072040053
 159     -0.552182074349     0.828080150669     0.096841214551     0.006072040053
 160      0.552182074349    -0.828080150669     0.096841214551     0.006072040053
 161     -0.552182074349    -0.828080150669     0.096841214551     0.006072040053
 162      0.183343464704     0.907465826531     0.378009189874     0.005664374808
 163     -0.183343464704     0.907465826531     0.378009189874     0.005664374808
 164      0.183343464704    -0.907465826531     0.378009189874     0.005664374808
 165     -0.183343464704    -0.907465826531     0.378009189874     0.005664374808
 166      0.183343464704     0.378009189874     0.907465826531     0.005664374808
 167     -0.183343464704     0.378009189874     0.907465826531     0.005664374808
 168      0.183343464704    -0.378009189874     0.907465826531     0.005664374808
 169     -0.183343464704    -0.378009189874     0.907465826531     0.005664374808
 170      0.907465826531     0.183343464704     0.378009189874     0.005664374808
 171     -0.907465826531     0.183343464704     0.378009189874     0.005664374808
 172      0.907465826531    -0.183343464704     0.378009189874     0.005664374808
 173     -0.907465826531    -0.183343464704     0.378009189874     0.005664374808
 174      0.907465826531     0.378009189874     0.183343464704     0.005664374808
 175     -0.907465826531     0.378009189874     0.183343464704     0.005664374808
 176      0.907465826531    -0.378009189874     0.183343464704     0.005664374808
 177     -0.907465826531    -0.378009189874     0.183343464704     0.005664374808
 178      0.378009189874     0.183343464704     0.907465826531     0.005664374808
 179     -0.378009189874     0.183343464704     0.907465826531     0.005664374808
 180      0.378009189874    -0.183343464704     0.907465826531     0.005664374808
 181     -0.378009189874    -0.183343464704     0.907465826531     0.005664374808
 182      0.378009189874     0.907465826531     0.183343464704     0.005664374808
 183     -0.378009189874     0.907465826531     0.183343464704     0.005664374808
 184      0.378009189874    -0.907465826531     0.183343464704     0.005664374808
 185     -0.378009189874    -0.907465826531     0.183343464704     0.005664374808
  --------------------------------------------------------------------------------
  The cut-off energy for the exact diagonalization of the Zeeman Hamiltonian is:
  E =  1300.907094000 cm(-1).
  The exact diagonalization of the Zeeman Hamiltonian included  16 exchange states.
  The magnetization vector was not calculated.
  Computation of the Zeeman splitting was not requested.

                         HIGH-FIELD POWDER MAGNETIZATION
                              (Units: Bohr magneton)

-----------|---------------|---------------|---------------|---------------|
   H(T)    |STATISTICAL SUM|     2.000 K.  |     4.000 K.  |     6.000 K.  |
-----------|---------------|---------------|---------------|---------------|
  0.000100 |     1.9999035 |  0.0009544487 |  0.0004910055 |  0.0003362715 |
  0.100000 |     1.9076899 |  0.9375551185 |  0.4888389403 |  0.3356262452 |
  0.200000 |     1.8238486 |  1.7834042696 |  0.9650154523 |  0.6674260277 |
  0.300000 |     1.7476568 |  2.4841768418 |  1.4174463986 |  0.9917923735 |
  0.400000 |     1.6783823 |  3.0318675572 |  1.8377753108 |  1.3055288899 |
  0.500000 |     1.6153701 |  3.4465450566 |  2.2208553810 |  1.6059904887 |
  0.600000 |     1.5580329 |  3.7572156866 |  2.5645997856 |  1.8911624039 |
  0.700000 |     1.5058440 |  3.9909897948 |  2.8694119729 |  2.1596776555 |
  0.800000 |     1.4583301 |  4.1694088525 |  3.1374506291 |  2.4107823935 |
  0.900000 |     1.4150650 |  4.3083419380 |  3.3719253714 |  2.6442639058 |
  1.000000 |     1.3756651 |  4.4190689129 |  3.5765281139 |  2.8603573572 |
  1.100000 |     1.3397838 |  4.5094914860 |  3.7550291884 |  3.0596455183 |
  1.200000 |     1.3071085 |  4.5851307932 |  3.9110224969 |  3.2429622628 |
  1.300000 |     1.2773562 |  4.6498622989 |  4.0477860033 |  3.4113067250 |
  1.400000 |     1.2502705 |  4.7064306528 |  4.1682223247 |  3.5657715654 |
  1.500000 |     1.2256191 |  4.7568022202 |  4.2748500608 |  3.7074861910 |
  1.600000 |     1.2031911 |  4.8024043762 |  4.3698242611 |  3.8375740720 |
  1.700000 |     1.1827947 |  4.8442878429 |  4.4549714573 |  3.9571223643 |
  1.800000 |     1.1642556 |  4.8832372917 |  4.5318300975 |  4.0671616784 |
  1.900000 |     1.1474148 |  4.9198472499 |  4.6016910310 |  4.1686538369 |
  2.000000 |     1.1321274 |  4.9545746773 |  4.6656351929 |  4.2624856665 |
  2.100000 |     1.1182611 |  4.9877757596 |  4.7245671946 |  4.3494671729 |
  2.200000 |     1.1056949 |  5.0197319400 |  4.7792444462 |  4.4303327633 |
  2.300000 |     1.0943182 |  5.0506685417 |  4.8303019398 |  4.5057444772 |
  2.400000 |     1.0840297 |  5.0807682377 |  4.8782730726 |  4.5762964467 |
  2.500000 |     1.0747363 |  5.1101808964 |  4.9236069908 |  4.6425200167 |
  2.600000 |     1.0663529 |  5.1390308490 |  4.9666829474 |  4.7048891197 |
  2.700000 |     1.0588010 |  5.1674223017 |  5.0078221394 |  4.7638256333 |
  2.800000 |     1.0520086 |  5.1954433951 |  5.0472974408 |  4.8197045389 |
  2.900000 |     1.0459093 |  5.2231692668 |  5.0853413927 |  4.8728587721 |
  3.000000 |     1.0404420 |  5.2506643691 |  5.1221527549 |  4.9235837059 |
  3.100000 |     1.0355505 |  5.2779842238 |  5.1579018787 |  4.9721412400 |
  3.200000 |     1.0311828 |  5.3051767484 |  5.1927351107 |  5.0187634950 |
  3.300000 |     1.0272910 |  5.3322832497 |  5.2267784059 |  5.0636561245 |
  3.400000 |     1.0238308 |  5.3593391632 |  5.2601402938 |  5.1070012682 |
  3.500000 |     1.0207617 |  5.3863745921 |  5.2929143160 |  5.1489601718 |
  3.600000 |     1.0180458 |  5.4134146971 |  5.3251810332 |  5.1896755059 |
  3.700000 |     1.0156486 |  5.4404799715 |  5.3570096826 |  5.2292734131 |
  3.800000 |     1.0135381 |  5.4675864373 |  5.3884595502 |  5.2678653129 |
  3.900000 |     1.0116849 |  5.4947457898 |  5.4195811143 |  5.3055494927 |
  4.000000 |     1.0100622 |  5.5219655176 |  5.4504170045 |  5.3424125108 |
  4.100000 |     1.0086451 |  5.5492490198 |  5.4810028140 |  5.3785304346 |
  4.200000 |     1.0074110 |  5.5765957409 |  5.5113677970 |  5.4139699367 |
  4.300000 |     1.0063393 |  5.6040013399 |  5.5415354753 |  5.4487892666 |
  4.400000 |     1.0054111 |  5.6314579048 |  5.5715241778 |  5.4830391155 |
  4.500000 |     1.0046096 |  5.6589542219 |  5.6013475279 |  5.5167633895 |
  4.600000 |     1.0039192 |  5.6864761015 |  5.6310148940 |  5.5499999033 |
  4.700000 |     1.0033262 |  5.7140067590 |  5.6605318127 |  5.5827810064 |
  4.800000 |     1.0028180 |  5.7415272425 |  5.6899003942 |  5.6151341498 |
  4.900000 |     1.0023837 |  5.7690168970 |  5.7191197129 |  5.6470824037 |
  5.000000 |     1.0020133 |  5.7964538499 |  5.7481861891 |  5.6786449304 |
-----------|---------------|---------------|---------------|---------------|
--- Stop Module: single_aniso at Thu Jun 20 15:32:55 2024 /rc=_RC_ALL_IS_WELL_ ---
*** files: xmldump
    saved to directory /media/korden/5fb66ce1-8053-4a4f-9303-c4fa91c2cea8/home/korden/calc/molcasfiles/hfac
--- Module single_aniso spent 25 seconds ---

>>> COPY Dyhf4.aniso /media/korden/5fb66ce1-8053-4a4f-9303-c4fa91c2cea8/home/korden/calc/molcasfiles/hfac/Dyhf4.aniso

    Timing: Wall=109751.46 User=106982.10 System=2595.83
