   This run of MOLCAS is using the pymolcas driver

                             OPE
                             OPE          NMOL  CASOP  ENMOLC A   SO
                 OPE        NMOLC        AS  OP EN  MO LC     AS  OP
                OPENM       OL CA        SO  PE NM  OL CA     SOP EN
                OP EN      MO   LC       AS  OP ENMOL  CASO   PENMOL
                OP  EN     MO   LC       AS  OP EN     MO     LC ASO
               OP   E  NMOL  C  AS       OP  EN MO     LC     AS  OP
               OP  E   NMO   LC AS        OPEN  MO     LCASOP EN   M
               O  PEN   MO  LCA  SO
            OPE   NMO   L   CAS    OP
        OPENMOL  CASOP     ENMOL   CASOPE
     OPENMOLCA   SOPENMOLCASOPEN   MOLCASOPE
    OPENMOLCAS   OP           EN   MOL    CAS
    OPENMOLCAS       OP  ENM        O     LCA
    OPENMOLCAS    OPEN  MOLCASO     P  E  NMO
    OPENMOLCAS     OP               E  N  MOL
    OPENMOLCA   SO           PENM   O  L  CAS    OPEN    MO    LCAS
    OPENMOLCA   SOP           ENM   O  L  CAS   OP  EN  MOLC  AS   O
    OPENMOLCA   SOPE           NM      O  LCA   S      OP  EN MO
    OPENMOLC                AS         O  PEN   M      OL  CA  SOPE
    OPENMO        LCASOPE  NMOL        C  ASO   P      ENMOLC     AS
    OPE     NMO      LCA  SO     P     E   NM   OL  CA SO  PE N   MO
          OPENMOLCA            SOPE   NMO        LCAS  O    P  ENMO
     OPENMOLCASOPENMOLCASOPENMOLCASOPENMOLCA
        OPENMOLCASOPENMOLCASOPENMOLCASOPE
            OPENMOLCASOPENMOLCASOPENM
               OPENMOLCASOPENMOLCA        version: v19.11 ?
                   OPENMOLCASO
                       OPE                tag:

 OpenMolcas is free software; you can redistribute it and/or modify it
 under the terms of the GNU Lesser General Public License version 2.1.
 OpenMolcas is distributed in the hope that it will be useful, but it
 is provided "as is" and without any express or implied warranties.
 For more details see the full text of the license in the file
 LICENSE or in <http://www.gnu.org/licenses/>.

                 Copyright (C) The OpenMolcas Authors
           For the author list and the recommended citation,
                   consult the file CONTRIBUTORS.md

           *************************************************
           * pymolcas version py2.06                       *
           *   build 99e611e35fc7aec87fd6f34cfa558dd4      *
           *   (after the EMIL interpreter by V. Veryazov) *
           *************************************************


   -----------------------------------------------------------------------------------------------------------------------
  |
  |              Project: dyacac_mod
  |       Submitted from: /media/korden/5fb66ce1-8053-4a4f-9303-c4fa91c2cea8/home/korden/calc/orca/Artem/D4d/magnetic_prop
  |         Scratch area: /tmp/dyacac_mod
  |      Save outputs to: /media/korden/5fb66ce1-8053-4a4f-9303-c4fa91c2cea8/home/korden/calc/orca/Artem/D4d/magnetic_prop
  |               Molcas: /usr/share/openmolcas
  |
  | Scratch area is NOT empty
  |
  |        MOLCAS_COLOR = YES
  |       MOLCAS_DRIVER = /usr/bin/pymolcas
  | MOLCAS_KEEP_WORKDIR = YES
  |      MOLCAS_MAXITER = 100
  |       MOLCAS_MOLDEN = YES
  |  MOLCAS_NEW_WORKDIR = NO
  |       MOLCAS_NPROCS = 1
  |        MOLCAS_PRINT = NORMAL
  |         MOLCAS_SAVE = ORIG
  |       MOLCAS_SOURCE = /home/korden/build
  |    MOLCAS_STRUCTURE = 0
  |         MOLCAS_TRAP = YES
  |
   -----------------------------------------------------------------------------------------------------------------------

++ ---------   Input file   ---------

&GATEWAY
Douglas-Kroll
AMFI
ANGM
-0.057599    4.461917   11.520713    Angstrom


Basis Set
Dy.ANO-RCC-VTZP.
Dy1    -0.057599    4.461917   11.520713 Angstrom
End of Basis Set

Basis Set
O.ANO-RCC-VTZP.
O1     -0.940011    5.403331   13.416147  Angstrom
O2      1.625128    3.205916   10.599148  Angstrom
O3     -1.076990    6.260055   10.542293  Angstrom
O4     -0.791746    3.548206    9.519574  Angstrom
O5      1.332218    3.999871   13.313828  Angstrom
O6      1.509529    6.057929   11.216202  Angstrom
End of Basis Set

Basis Set
C.ANO-RCC-MB.
C1     -1.902156    1.670733   12.494538  Angstrom
C2     -3.488567    4.740948   11.413159  Angstrom
C3     -2.970938    2.655695   12.160528  Angstrom
C4      1.629704    7.191044   10.672260  Angstrom
C5      0.332664    1.241950   12.630430  Angstrom
C6      0.579411    7.892417   10.025023  Angstrom
C7     -0.735533    7.375640   10.044408  Angstrom
C8     -1.285374   -0.382852   13.206692  Angstrom
C9      0.058544   -0.044060   13.078910  Angstrom
C10      1.826531    2.415026    9.631989 Angstrom
C11      0.857551    2.061021    8.662660 Angstrom
C12     -0.736154    5.437024   14.665577 Angstrom
C13      3.009956    7.804871   10.746042 Angstrom
C14     -4.841211    4.452744   11.547946 Angstrom
C15     -5.162831    3.183979   12.018879 Angstrom
C16     -0.409651    2.697578    8.667455 Angstrom
C17      1.362903    4.173341   14.563779 Angstrom
C18     -1.853926    8.193654    9.436409 Angstrom
C19      3.221925    1.830899    9.554507 Angstrom
C20     -1.399121    2.371546    7.570343 Angstrom
C21      0.357436    4.826198   15.322419 Angstrom
C22     -1.755398    6.209615   15.474759 Angstrom
C23      2.585366    3.627999   15.271377 Angstrom
C24      0.847819    9.228054    9.373436 Angstrom
C25      0.501075    4.936932   16.821391 Angstrom
C26      1.181364    1.068231    7.572383 Angstrom
End of Basis Set

Basis Set
H.ANO-RCC-MB.
H1     -3.109169    5.696051   11.049604  Angstrom
H2      1.345500    1.623926   12.503224  Angstrom
H3     -1.588122   -1.372957   13.554349  Angstrom
H4      0.854320   -0.745077   13.318478  Angstrom
H5      2.983788    8.837241   11.114342  Angstrom
H6      3.477771    7.822388    9.752396  Angstrom
H7      3.626641    7.193515   11.409901  Angstrom
H8     -5.605639    5.184983   11.299622  Angstrom
H9     -6.201602    2.876249   12.156344  Angstrom
H10     -1.758475    8.222291    8.342568 Angstrom
H11     -1.844539    9.230927    9.791399 Angstrom
H12     -2.815094    7.735358    9.684497 Angstrom
H13      3.848821    2.333154   10.296119 Angstrom
H14      3.665873    1.954636    8.559570 Angstrom
H15      3.209827    0.754054    9.772619 Angstrom
H16     -1.763892    1.340004    7.668348 Angstrom
H17     -0.947643    2.459538    6.574684 Angstrom
H18     -2.249279    3.054600    7.647025 Angstrom
H19     -2.437585    6.716197   14.786978 Angstrom
H20     -1.281395    6.952065   16.127992 Angstrom
H21     -2.337530    5.535273   16.117319 Angstrom
H22      3.315904    3.316872   14.519799 Angstrom
H23      2.321217    2.760085   15.891510 Angstrom
H24      3.041965    4.372149   15.934805 Angstrom
H25      1.891753    9.321132    9.057444 Angstrom
H26      0.243062    9.370364    8.470311 Angstrom
H27      0.638346   10.083351   10.036450 Angstrom
H28     -0.471697    5.006944   17.319860 Angstrom
H29      0.999262    4.059725   17.249479 Angstrom
H30      1.084161    5.818000   17.135669 Angstrom
H31      2.035725    0.437361    7.835912 Angstrom
H32      0.344554    0.385036    7.379287 Angstrom
H33      1.426422    1.548028    6.611059 Angstrom
End of Basis Set

Basis Set
N.ANO-RCC-MB.
N1     -0.646252    2.096046   12.336555  Angstrom
N2     -2.265640    0.465718   12.919070  Angstrom
N3     -4.235513    2.283686   12.325114  Angstrom
N4     -2.554777    3.842714   11.715972  Angstrom
End of Basis Set

&SEWARD
HIGH Cholesky

&RASSCF
SYMM
1
Spin
6
nActel
9 0 0
charge
0
Ras1
0
Ras2
7
Ras3
0
CIROOT
21 21 1
OrbL
nocore
ORBA
compact
End Of Input

>>> COPY $Project.JobIph JOB001

&RASSI
spinorbit
nrofjobiphs=1 21
 1 2 3 4 5 6 7 8 9 10 11 12 13 14 15 16 17 18 19 20 21
PROP
          3
           'ANGMOM' 1
           'ANGMOM' 2
           'ANGMOM' 3

&SINGLE_ANISO
MLTP
8
2 2 2 2  2 2 2 2
CRYS
Dy
XFIE
0.5
TINT
0 300 301
HINT
0 5 51
TMAG
4 1.9 3 5 7
UBAR

>>> COPY $Project.aniso $CurrDir/Dy_acacmod.aniso

-- ----------------------------------

*** symbolic link created: INPORB -> dyacac_mod.RasOrb
--- Start Module: gateway at Sat Nov 16 20:28:46 2024 ---

()()()()()()()()()()()()()()()()()()()()()()()()()()()()()()()()()()()()()()()()()()()()()()()()()()

                                              &GATEWAY

                                   only a single process is used
                       available to each process: 32 GB of memory, 1 thread?
                                            pid: 403692
()()()()()()()()()()()()()()()()()()()()()()()()()()()()()()()()()()()()()()()()()()()()()()()()()()


++    Symmetry information:
      ---------------------

                    Character Table for C1 

                             E  
                    a        1  x, y, xy, Rz, z, xz, Ry, yz, Rx, I
--


++    Basis set information:
      ----------------------


      Basis set label: DY.ANO-RCC...8S7P5D3F2G1H.

      Electronic valence basis set:
      ------------------
      Associated Effective Charge  66.000000 au
      Associated Actual Charge     66.000000 au
      Nuclear Model: Point charge

      Shell  nPrim  nBasis  Cartesian Spherical Contaminant
         s      25       8        X                  
         p      22       7        X                  
         d      15       5                 X         
         f      11       3                 X         
         g       4       2                 X         
         h       2       1                 X         


      Basis set label: O.ANO-RCC...4S3P2D1F.

      Electronic valence basis set:
      ------------------
      Associated Effective Charge   8.000000 au
      Associated Actual Charge      8.000000 au
      Nuclear Model: Point charge

      Shell  nPrim  nBasis  Cartesian Spherical Contaminant
         s      14       4        X                  
         p       9       3        X                  
         d       4       2                 X         
         f       3       1                 X         


      Basis set label: C.ANO-RCC...2S1P.

      Electronic valence basis set:
      ------------------
      Associated Effective Charge   6.000000 au
      Associated Actual Charge      6.000000 au
      Nuclear Model: Point charge

      Shell  nPrim  nBasis  Cartesian Spherical Contaminant
         s      14       2        X                  
         p       9       1        X                  


      Basis set label: H.ANO-RCC...1S.

      Electronic valence basis set:
      ------------------
      Associated Effective Charge   1.000000 au
      Associated Actual Charge      1.000000 au
      Nuclear Model: Point charge

      Shell  nPrim  nBasis  Cartesian Spherical Contaminant
         s       8       1        X                  


      Basis set label: N.ANO-RCC...2S1P.

      Electronic valence basis set:
      ------------------
      Associated Effective Charge   7.000000 au
      Associated Actual Charge      7.000000 au
      Nuclear Model: Point charge

      Shell  nPrim  nBasis  Cartesian Spherical Contaminant
         s      14       2        X                  
         p       9       1        X                  
--


++    Molecular structure info:
      -------------------------

                    ************************************************ 
                    **** Cartesian Coordinates / Bohr, Angstrom **** 
                    ************************************************ 

     Center  Label                x              y              z                     x              y              z
        1      DY1             -0.108846       8.431801      21.770992             -0.057599       4.461917      11.520713
        2      O1              -1.776363      10.210816      25.352843             -0.940011       5.403331      13.416147
        3      O2               3.071047       6.058303      20.029487              1.625128       3.205916      10.599148
        4      O3              -2.035216      11.829789      19.922046             -1.076990       6.260055      10.542293
        5      O4              -1.496183       6.705138      17.989388             -0.791746       3.548206       9.519574
        6      O5               2.517527       7.558661      25.159489              1.332218       3.999871      13.313828
        7      O6               2.852596      11.447827      21.195550              1.509529       6.057929      11.216202
        8      C1              -3.594554       3.157228      23.611255             -1.902156       1.670733      12.494538
        9      C2              -6.592436       8.959093      21.567745             -3.488567       4.740948      11.413159
       10      C3              -5.614259       5.018536      22.980067             -2.970938       2.655695      12.160528
       11      C4               3.079694      13.589104      20.167649              1.629704       7.191044      10.672260
       12      C5               0.628644       2.346945      23.868054              0.332664       1.241950      12.630430
       13      C6               1.094928      14.914507      18.944548              0.579411       7.892417      10.025023
       14      C7              -1.389956      13.937940      18.981180             -0.735533       7.375640      10.044408
       15      C8              -2.429005      -0.723485      24.957031             -1.285374      -0.382852      13.206692
       16      C9               0.110632      -0.083261      24.715558              0.058544      -0.044060      13.078910
       17      C10              3.451643       4.563738      18.201821              1.826531       2.415026       9.631989
       18      C11              1.620537       3.894765      16.370055              0.857551       2.061021       8.662660
       19      C12             -1.391129      10.274486      27.713924             -0.736154       5.437024      14.665577
       20      C13              5.687992      14.749069      20.307076              3.009956       7.804871      10.746042
       21      C14             -9.148563       8.414467      21.822455             -4.841211       4.452744      11.547946
       22      C15             -9.756337       6.016848      22.712390             -5.162831       3.183979      12.018879
       23      C16             -0.774128       5.097684      16.379116             -0.409651       2.697578       8.667455
       24      C17              2.575513       7.886472      27.521554              1.362903       4.173341      14.563779
       25      C18             -3.503412      15.483762      17.832229             -1.853926       8.193654       9.436409
       26      C19              6.088556       3.459898      18.055401              3.221925       1.830899       9.554507
       27      C20             -2.643956       4.481572      14.305875             -1.399121       2.371546       7.570343
       28      C21              0.675456       9.120192      28.955175              0.357436       4.826198      15.322419
       29      C22             -3.317221      11.734472      29.243056             -1.755398       6.209615      15.474759
       30      C23              4.885634       6.855924      28.858720              2.585366       3.627999      15.271377
       31      C24              1.602146      17.438495      17.713227              0.847819       9.228054       9.373436
       32      C25              0.946895       9.329449      31.787822              0.501075       4.936932      16.821391
       33      C26              2.232454       2.018664      14.309730              1.181364       1.068231       7.572383
       34      H1              -5.875478      10.763976      20.880725             -3.109169       5.696051      11.049604
       35      H2               2.542627       3.068775      23.627669              1.345500       1.623926      12.503224
       36      H3              -3.001116      -2.594513      25.614007             -1.588122      -1.372957      13.554349
       37      H4               1.614431      -1.407991      25.168276              0.854320      -0.745077      13.318478
       38      H5               5.638542      16.699965      21.003062              2.983788       8.837241      11.114342
       39      H6               6.572035      14.782171      18.429357              3.477771       7.822388       9.752396
       40      H7               6.853358      13.593773      21.561588              3.626641       7.193515      11.409901
       41      H8             -10.593122       9.798198      21.353191             -5.605639       5.184983      11.299622
       42      H9             -11.719329       5.435323      22.972161             -6.201602       2.876249      12.156344
       43      H10             -3.323036      15.537878      15.765169             -1.758475       8.222291       8.342568
       44      H11             -3.485674      17.443924      18.503062             -1.844539       9.230927       9.791399
       45      H12             -5.319757      14.617708      18.301047             -2.815094       7.735358       9.684497
       46      H13              7.273218       4.409022      19.456845              3.848821       2.333154      10.296119
       47      H14              6.927496       3.693727      16.175243              3.665873       1.954636       8.559570
       48      H15              6.065694       1.424956      18.467573              3.209827       0.754054       9.772619
       49      H16             -3.333273       2.532241      14.491078             -1.763892       1.340004       7.668348
       50      H17             -1.790786       4.647853      12.424352             -0.947643       2.459538       6.574684
       51      H18             -4.250521       5.772357      14.450783             -2.249279       3.054600       7.647025
       52      H19             -4.606368      12.691773      27.943339             -2.437585       6.716197      14.786978
       53      H20             -2.421486      13.137499      30.477488             -1.281395       6.952065      16.127992
       54      H21             -4.417292      10.460150      30.457319             -2.337530       5.535273      16.117319
       55      H22              6.266150       6.267980      27.438443              3.315904       3.316872      14.519799
       56      H23              4.386464       5.215805      30.030602              2.321217       2.760085      15.891510
       57      H24              5.748481       8.262164      30.112417              3.041965       4.372149      15.934805
       58      H25              3.574895      17.614387      17.116089              1.891753       9.321132       9.057444
       59      H26              0.459321      17.707422      16.006568              0.243062       9.370364       8.470311
       60      H27              1.206299      19.054772      18.966142              0.638346      10.083351      10.036450
       61      H28             -0.891378       9.461753      32.729792             -0.471697       5.006944      17.319860
       62      H29              1.888332       7.671768      32.596791              0.999262       4.059725      17.249479
       63      H30              2.048767      10.994427      32.381721              1.084161       5.818000      17.135669
       64      H31              3.846963       0.826493      14.807728              2.035725       0.437361       7.835912
       65      H32              0.651113       0.727613      13.944831              0.344554       0.385036       7.379287
       66      H33              2.695547       2.925349      12.493091              1.426422       1.548028       6.611059
       67      N1              -1.221239       3.960953      23.312710             -0.646252       2.096046      12.336555
       68      N2              -4.281439       0.880079      24.413504             -2.265640       0.465718      12.919070
       69      N3              -8.003960       4.315541      23.291090             -4.235513       2.283686      12.325114
       70      N4              -4.827829       7.261677      22.139978             -2.554777       3.842714      11.715972

                    ************************************************* 
                    **** InterNuclear Distances / Bohr, Angstrom **** 
                    ************************************************* 

     Atom centers         Bohr        Angstrom
   37 H4       16 C9      2.054574        1.087234
   41 H8       21 C14     2.054671        1.087285
   35 H2       12 C5      2.059649        1.089919
   34 H1        9 C2      2.060007        1.090109
   42 H9       22 C15     2.063733        1.092080
   36 H3       15 C8      2.063897        1.092167
   40 H7       20 C13     2.065571        1.093053
   52 H19      29 C22     2.065815        1.093182
   51 H18      27 C20     2.065957        1.093257
   46 H13      26 C19     2.065988        1.093274
   55 H22      30 C23     2.066081        1.093323
   45 H12      25 C18     2.066143        1.093356
   64 H31      33 C26     2.067828        1.094247
   58 H25      31 C24     2.068635        1.094675
   61 H28      32 C25     2.069797        1.095289
   62 H29      32 C25     2.070903        1.095875
   59 H26      31 C24     2.071486        1.096183
   44 H11      25 C18     2.071851        1.096376
   38 H5       20 C13     2.071917        1.096411
   47 H14      26 C19     2.072074        1.096495
   57 H24      30 C23     2.072142        1.096530
   53 H20      29 C22     2.072353        1.096642
   50 H17      27 C20     2.072601        1.096773
   65 H32      33 C26     2.073790        1.097403
   43 H10      25 C18     2.075621        1.098371
   39 H6       20 C13     2.075682        1.098403
   54 H21      29 C22   
   49 H16      27 C20     2.075898        1.098518
   48 H15      26 C19     2.076391        1.098779
   56 H23      30 C23     2.076649        1.098915
   66 H33      33 C26     2.082477        1.101999
   60 H27      31 C24     2.082989        1.102270
   63 H30      32 C25     2.083024        1.102289
   24 C17       6 O5      2.385408        1.262304
   11 C4        7 O6      2.386047        1.262642
   23 C16       5 O4      2.387100        1.263199
   17 C10       3 O2      2.391431        1.265491
   19 C12       2 O1      2.393149        1.266400
   14 C7        4 O3      2.397058        1.268468
   68 N2       15 C8      2.509652        1.328051
   69 N3       22 C15     2.510013        1.328242
   68 N2        8 C1      2.510143        1.328311
   69 N3       10 C3      2.510300        1.328393
   70 N4        9 C2      2.514461        1.330595
   67 N1       12 C5      2.517041        1.331961
   70 N4       10 C3      2.521092        1.334104
   67 N1        8 C1      2.523435        1.335344
   16 C9       12 C5      2.625358        1.389280
   21 C14       9 C2      2.625886        1.389559
   22 C15      21 C14     2.628678        1.391036
   16 C9       15 C8      2.630200        1.391842
   14 C7       13 C6      2.670145        1.412980
   28 C21      19 C12     2.672803        1.414386
   18 C11      17 C10     2.675041        1.415571
   23 C16      18 C11     2.679835        1.418107
   28 C21      24 C17     2.680962        1.418704
   13 C6       11 C4      2.681784        1.419139
   10 C3        8 C1      2.818169        1.491311
   33 C26      18 C11     2.852917        1.509699
   32 C25      28 C21     2.853306        1.509904
   31 C24      13 C6      2.853758        1.510144
   20 C13      11 C4      2.858003        1.512390
   27 C20      23 C16     2.859052        1.512945
   25 C18      14 C7      2.859433        1.513147
   29 C22      19 C12     2.860006        1.513450
   30 C23      24 C17     2.861240        1.514103
   26 C19      17 C10     2.862378        1.514705
   59 H26      58 H25     3.308549        1.750809
   62 H29      61 H28     3.308855        1.750971
   65 H32      64 H31     3.311771        1.752514
   66 H33      64 H31     3.329940        1.762128
   60 H27      58 H25     3.332815        1.763650
   63 H30      62 H29     3.333474        1.763999
   63 H30      61 H28     3.333871        1.764209
   66 H33      65 H32     3.334263        1.764416
   50 H17      49 H16     3.335631        1.765140
   60 H27      59 H26     3.336526        1.765614
   57 H24      56 H23     3.337977        1.766381
   48 H15      47 H14     3.338383        1.766596
   54 H21      53 H20     3.339438        1.767154
   44 H11      43 H10     3.339989        1.767446
   39 H6       38 H5      3.342649        1.768854
   45 H12      43 H10     3.356231        1.776041
   40 H7       39 H6      3.361889        1.779035
   54 H21      52 H19     3.366896        1.781685
   48 H15      46 H13     3.367688        1.782104
   51 H18      49 H16   
   56 H23      55 H22     3.370397        1.783537
   45 H12      44 H11     3.375228        1.786094
   53 H20      52 H19     3.375544        1.786261
   57 H24      55 H22     3.375632        1.786307
   47 H14      46 H13     3.376401        1.786714
   51 H18      50 H17     3.379531        1.788371
   40 H7       38 H5      3.381739        1.789539
   70 N4       34 H1      3.866444        2.046034
   67 N1       35 H2      3.880962        2.053717
   68 N2       36 H3      3.892715        2.059936
   69 N3       42 H9      3.893533        2.060369
   40 H7       11 C4      4.022888        2.128821
   46 H13      17 C10     4.025351        2.130124
   52 H19      19 C12     4.029102        2.132109
   55 H22      24 C17     4.030785        2.132999
   51 H18      23 C16     4.032240        2.133770
   45 H12      14 C7      4.045739        2.140913
   43 H10      14 C7      4.079134        2.158585
   39 H6       11 C4      4.079400        2.158726
   49 H16      23 C16     4.086002        2.162219
   56 H23      24 C17     4.087460        2.162990
   54 H21      19 C12     4.088807        2.163703
   41 H8        9 C2      4.093363        2.166114
   48 H15      17 C10     4.093390        2.166128
   37 H4       12 C5      4.094130        2.166521
   58 H25      13 C6      4.096688        2.167874
   36 H3       16 C9      4.098362        2.168760
   34 H1        4 O3      4.099101        2.169151
   42 H9       21 C14     4.099507        2.169366
   64 H31      18 C11     4.100261        2.169765
   61 H28      28 C21     4.101142        2.170231
   62 H29      28 C21     4.102483        2.170940
   59 H26      13 C6      4.103181        2.171310
   41 H8       22 C15     4.104417        2.171964
   65 H32      18 C11     4.105161        2.172358
   37 H4       15 C8      4.106403        2.173015
   50 H17      23 C16     4.108053        2.173888
   53 H20      19 C12     4.110445        2.175154
   44 H11      14 C7      4.112488        2.176235
   57 H24      24 C17     4.113568        2.176806
   38 H5       11 C4      4.113767        2.176912
   47 H14      17 C10     4.116490        2.178353
   35 H2       16 C9      4.127158        2.183998
   34 H1       21 C14     4.137649        2.189549
   66 H33      18 C11     4.138389        2.189941
   63 H30      28 C21     4.140043        2.190816
   60 H27      13 C6      4.141819        2.191756
    7 O6        1 DY1     4.265875        2.257404
   22 C15      10 C3      4.269085        2.259102
   15 C8        8 C1      4.269608        2.259379
   10 C3        9 C2      4.298776        2.274814
   12 C5        8 C1      4.307888        2.279636
   61 H28      54 H21     4.311960        2.281791
   64 H31      48 H15     4.321504        2.286841
    4 O3        1 DY1     4.321554        2.286868
   58 H25      39 H6      4.327698        2.290119
    2 O1        1 DY1     4.333032        2.292942
    3 O2        1 DY1     4.333365        2.293118
   62 H29      56 H23     4.342552        2.297979
   59 H26      43 H10     4.367083        2.310961
    6 O5        1 DY1     4.375171        2.315241
    5 O4        1 DY1     4.382534        2.319137
   65 H32      49 H16     4.407992        2.332609
   64 H31      47 H14     4.425022        2.341621
   20 C13       7 O6      4.441515        2.350348
   26 C19       3 O2      4.444557        2.351958
   30 C23       6 O5      4.448155        2.353862
   29 C22       2 O1      4.453036        2.356445
   27 C20       5 O4      4.453076        2.356467
   25 C18       4 O3      4.458077        2.359113
   15 C8       12 C5      4.467956        2.364341
   22 C15       9 C2      4.469595        2.365208
   68 N2       67 N1      4.479771        2.370593
   70 N4       69 N3      4.482475        2.372024
   67 N1       16 C9      4.483027        2.372316
   70 N4       21 C14     4.483134        2.372372
   13 C6        7 O6      4.491579        2.376841
   18 C11       3 O2      4.491806        2.376961
   28 C21       2 O1      4.491957        2.377041
   58 H25      38 H5      4.494816        2.378554
   18 C11       5 O4      4.498263        2.380378
   28 C21       6 O5      4.498760        2.380642
   69 N3       21 C14     4.502021        2.382367
   13 C6        4 O3      4.502087        2.382402
   68 N2       16 C9      4.506612        2.384796
   67 N1       10 C3      4.530757        2.397573
   70 N4        8 C1      4.531239        2.397828
   46 H13       3 O2      4.550416        2.407976
   40 H7        7 O6      4.554686        2.410236
   52 H19       2 O1      4.568888        2.417752
   69 N3        8 C1      4.570236        2.418465
   55 H22       6 O5      4.572928        2.419889
   61 H28      53 H20     4.574408        2.420673
   68 N2       10 C3      4.577988        2.422567
   51 H18       5 O4      4.580194        2.423735
   45 H12       4 O3      4.603079        2.435845
   62 H29      57 H24     4.628329        2.449206
   23 C16      17 C10     4.632979        2.451667
   24 C17      19 C12     4.633991        2.452203
   14 C7       11 C4      4.637582        2.454103
   45 H12      34 H1      4.670633        2.471593
   59 H26      44 H11     4.675991        2.474428
   35 H2        3 O2      4.707804        2.491263
   35 H2        6 O5      4.744067        2.510452
   64 H31      26 C19     4.744149        2.510495
   25 C18      13 C6      4.765086        2.521575
   27 C20      18 C11     4.774000        2.526292
   33 C26      23 C16     4.775171        2.526912
   31 C24      14 C7      4.776428        2.527577
   58 H25      20 C13     4.780965        2.529978
   29 C22      28 C21     4.781088        2.530043
   30 C23      28 C21     4.781402        2.530209
   37 H4       36 H3      4.786416        2.532862
   42 H9       41 H8      4.787910        2.533653
   32 C25      24 C17     4.789116        2.534291
   32 C25      19 C12     4.791252        2.535421
   20 C13      13 C6      4.793756        2.536746
   26 C19      18 C11     4.795070        2.537442
   31 C24      11 C4      4.798452        2.539232
   66 H33      50 H17     4.806134        2.543297
   33 C26      17 C10     4.807515        2.544027
   61 H28      29 C22     4.817395        2.549255
   37 H4       35 H2      4.824568        2.553052
   41 H8       34 H1      4.838607        2.560481
   67 N1        1 DY1     4.858271        2.570886
   62 H29      30 C23     4.860308        2.571964
   65 H32      50 H17     4.862408        2.573076
   70 N4        1 DY1     4.875873        2.580201
   59 H26      25 C18     4.897035        2.591399
   60 H27      44 H11     4.982357        2.636550
   65 H32      27 C20     5.007998        2.650118
   70 N4       67 N1      5.027680        2.660534
   21 C14      10 C3      5.036240        2.665063
    5 O4        3 O2      5.043807        2.669068
   16 C9        8 C1      5.044666        2.669522
    6 O5        2 O1      5.050625        2.672675
   64 H31      17 C10     5.063907        2.679704
    7 O6        4 O3      5.065414        2.680502
   58 H25      11 C4      5.075445        2.685810
   61 H28      19 C12     5.105802        2.701874
   67 N1       15 C8      5.109447        2.703803
   70 N4       22 C15     5.115412        2.706960
   62 H29      24 C17     5.126046        2.712587
   63 H30      57 H24     5.128633        2.713956
   59 H26      14 C7      5.145594        2.722931
   44 H11      31 C24     5.148764        2.724609
   69 N3        9 C2      5.150232        2.725386
   68 N2       12 C5      5.153458        2.727092
   50 H17      33 C26     5.162727        2.731997
   69 N3       68 N2      5.188388        2.745577
   57 H24      32 C25     5.196278        2.749752
   65 H32      23 C16     5.201401        2.752463
   53 H20      32 C25     5.250162        2.778266
   44 H11      13 C6      5.251169        2.778799
   38 H5       31 C24     5.259367        2.783137
   50 H17      18 C11     5.269994        2.788760
   57 H24      28 C21     5.273614        2.790676
   53 H20      28 C21     5.295964        2.802503
   38 H5       13 C6      5.298091        2.803629
   63 H30      53 H20     5.310558        2.810226
   47 H14      18 C11     5.314338        2.812226
   47 H14      33 C26     5.322536        2.816565
   70 N4        2 O1      5.322721        2.816663
   70 N4        5 O4      5.351355        2.831815
    6 O5        3 O2      5.373488        2.843527
   23 C16       3 O2      5.388262        2.851345
   24 C17       2 O1      5.389315        2.851902
   14 C7        7 O6      5.394752        2.854780
   17 C10       5 O4      5.395527        2.855190
   19 C12       6 O5      5.401708        2.858461
   11 C4        4 O3      5.414593        2.865279
   60 H27      38 H5      5.416543        2.866311
   33 C26      27 C20     5.463086        2.890941
   31 C24      25 C18     5.468260        2.893678
   49 H16      18 C11     5.470581        2.894907
   54 H21      28 C21     5.476130        2.897843
   43 H10      13 C6      5.478636        2.899169
   56 H23      28 C21     5.492938        2.906738
   32 C25      30 C23     5.496511        2.908628
   48 H15      18 C11     5.500815        2.910906
   39 H6       13 C6      5.502875        2.911996
    5 O4        4 O3      5.503434        2.912292
   67 N1        6 O5      5.507492        2.914439
   32 C25      29 C22     5.517486        2.919728
    7 O6        3 O2      5.518549        2.920291
   31 C24      20 C13     5.536715        2.929903
    7 O6        6 O5      5.563335        2.943990
   33 C26      26 C19     5.565674        2.945228
   49 H16      33 C26     5.592313        2.959325
   43 H10      31 C24     5.627139        2.977754
    9 C2        4 O3      5.631827        2.980234
   54 H21      32 C25     5.641207        2.985198
   56 H23      32 C25     5.642742        2.986010
   66 H33      23 C16     5.644367        2.986870
   66 H33      47 H14     5.661982        2.996192
--


            Nuclear Potential Energy           6719.64388184 au

--- Stop Module: gateway at Sat Nov 16 20:28:46 2024 /rc=_RC_ALL_IS_WELL_ ---
*** files: xmldump
    saved to directory /media/korden/5fb66ce1-8053-4a4f-9303-c4fa91c2cea8/home/korden/calc/orca/Artem/D4d/magnetic_prop

*** symbolic link created: INPORB -> dyacac_mod.RasOrb
--- Start Module: seward at Sat Nov 16 20:28:46 2024 ---

()()()()()()()()()()()()()()()()()()()()()()()()()()()()()()()()()()()()()()()()()()()()()()()()()()

                                              &SEWARD

                                   only a single process is used
                       available to each process: 32 GB of memory, 1 thread?
                                            pid: 403696
()()()()()()()()()()()()()()()()()()()()()()()()()()()()()()()()()()()()()()()()()()()()()()()()()()

               SEWARD will generate:
                  Multipole Moment integrals up to order  2
                  Kinetic Energy integrals
                  Nuclear Attraction integrals (point charge)
                  One-Electron Hamiltonian integrals
                  Velocity integrals
                  Relativistic Douglas-Kroll integrals
                  Orbital angular momentum around (-0.1088  8.4318 21.7710 )
                  Velocity quadrupole around (-0.6032  7.8369 21.9784 )
                  Atomic mean-field integrals
                  Cholesky decomposed two-electron repulsion integrals
                   - CD Threshold:   0.10E-07

                   Integrals are discarded if absolute value <: 0.10E-39
                   Integral cutoff threshold is set to       <: 0.10E-39

            Nuclear Potential Energy           6719.64388184 au


      Basis set specifications :
      Symmetry species         a  
      Basis functions          467

      Cholesky vectors        6248


 Sorry, Molden does not know how to handle
 functions with angular momentum larger than g
--- Stop Module: seward at Sat Nov 16 21:42:42 2024 /rc=_RC_ALL_IS_WELL_ ---
*** files: dyacac_mod.GssOrb xmldump
    saved to directory /media/korden/5fb66ce1-8053-4a4f-9303-c4fa91c2cea8/home/korden/calc/orca/Artem/D4d/magnetic_prop
--- Module seward spent 1 hour 13 minutes 55 seconds ---

*** symbolic link created: INPORB -> dyacac_mod.RasOrb
--- Start Module: rasscf at Sat Nov 16 21:42:42 2024 ---

()()()()()()()()()()()()()()()()()()()()()()()()()()()()()()()()()()()()()()()()()()()()()()()()()()

                                              &RASSCF

                                   only a single process is used
                       available to each process: 32 GB of memory, 1 thread?
                                            pid: 403765
()()()()()()()()()()()()()()()()()()()()()()()()()()()()()()()()()()()()()()()()()()()()()()()()()()


      Header of the ONEINT file:
      --------------------------
      
      Integrals generated by Gateway/Seward, Sat Nov 16 20:28:46 2024


      OrdInt status: non-squared


      Cartesian coordinates in Angstrom:
      -----------------------------------------------------
      No.  Label        X            Y            Z        
      -----------------------------------------------------
       1   DY1       -0.05759900   4.46191700  11.52071300
       2   O1        -0.94001100   5.40333100  13.41614700
       3   O2         1.62512800   3.20591600  10.59914800
       4   O3        -1.07699000   6.26005500  10.54229300
       5   O4        -0.79174600   3.54820600   9.51957400
       6   O5         1.33221800   3.99987100  13.31382800
       7   O6         1.50952900   6.05792900  11.21620200
       8   C1        -1.90215600   1.67073300  12.49453800
       9   C2        -3.48856700   4.74094800  11.41315900
      10   C3        -2.97093800   2.65569500  12.16052800
      11   C4         1.62970400   7.19104400  10.67226000
      12   C5         0.33266400   1.24195000  12.63043000
      13   C6         0.57941100   7.89241700  10.02502300
      14   C7        -0.73553300   7.37564000  10.04440800
      15   C8        -1.28537400  -0.38285200  13.20669200
      16   C9         0.05854400  -0.04406000  13.07891000
      17   C10        1.82653100   2.41502600   9.63198900
      18   C11        0.85755100   2.06102100   8.66266000
      19   C12       -0.73615400   5.43702400  14.66557700
      20   C13        3.00995600   7.80487100  10.74604200
      21   C14       -4.84121100   4.45274400  11.54794600
      22   C15       -5.16283100   3.18397900  12.01887900
      23   C16       -0.40965100   2.69757800   8.66745500
      24   C17        1.36290300   4.17334100  14.56377900
      25   C18       -1.85392600   8.19365400   9.43640900
      26   C19        3.22192500   1.83089900   9.55450700
      27   C20       -1.39912100   2.37154600   7.57034300
      28   C21        0.35743600   4.82619800  15.32241900
      29   C22       -1.75539800   6.20961500  15.47475900
      30   C23        2.58536600   3.62799900  15.27137700
      31   C24        0.84781900   9.22805400   9.37343600
      32   C25        0.50107500   4.93693200  16.82139100
      33   C26        1.18136400   1.06823100   7.57238300
      34   H1        -3.10916900   5.69605100  11.04960400
      35   H2         1.34550000   1.62392600  12.50322400
      36   H3        -1.58812200  -1.37295700  13.55434900
      37   H4         0.85432000  -0.74507700  13.31847800
      38   H5         2.98378800   8.83724100  11.11434200
      39   H6         3.47777100   7.82238800   9.75239600
      40   H7         3.62664100   7.19351500  11.40990100
      41   H8        -5.60563900   5.18498300  11.29962200
      42   H9        -6.20160200   2.87624900  12.15634400
      43   H10       -1.75847500   8.22229100   8.34256800
      44   H11       -1.84453900   9.23092700   9.79139900
      45   H12       -2.81509400   7.73535800   9.68449700
      46   H13        3.84882100   2.33315400  10.29611900
      47   H14        3.66587300   1.95463600   8.55957000
      48   H15        3.20982700   0.75405400   9.77261900
      49   H16       -1.76389200   1.34000400   7.66834800
      50   H17       -0.94764300   2.45953800   6.57468400
      51   H18       -2.24927900   3.05460000   7.64702500
      52   H19       -2.43758500   6.71619700  14.78697800
      53   H20       -1.28139500   6.95206500  16.12799200
      54   H21       -2.33753000   5.53527300  16.11731900
      55   H22        3.31590400   3.31687200  14.51979900
      56   H23        2.32121700   2.76008500  15.89151000
      57   H24        3.04196500   4.37214900  15.93480500
      58   H25        1.89175300   9.32113200   9.05744400
      59   H26        0.24306200   9.37036400   8.47031100
      60   H27        0.63834600  10.08335100  10.03645000
      61   H28       -0.47169700   5.00694400  17.31986000
      62   H29        0.99926200   4.05972500  17.24947900
      63   H30        1.08416100   5.81800000  17.13566900
      64   H31        2.03572500   0.43736100   7.83591200
      65   H32        0.34455400   0.38503600   7.37928700
      66   H33        1.42642200   1.54802800   6.61105900
      67   N1        -0.64625200   2.09604600  12.33655500
      68   N2        -2.26564000   0.46571800  12.91907000
      69   N3        -4.23551300   2.28368600  12.32511400
      70   N4        -2.55477700   3.84271400  11.71597200
      -----------------------------------------------------
      Nuclear repulsion energy = 6719.64388184

++    Wave function specifications:
      -----------------------------

      Number of closed shell electrons         322
      Number of electrons in active shells       9
      Max number of holes in RAS1 space          0
      Max nr of electrons in RAS3 space          0
      Number of inactive orbitals              161
      Number of active orbitals                  7
      Number of secondary orbitals             299
      Spin quantum number                      2.5
      State symmetry                             1
--

++    Orbital specifications:
      -----------------------

      Symmetry species                           1
                                                 a
      Frozen orbitals                            0
      Inactive orbitals                        161
      Active orbitals                            7
      RAS1 orbitals                              0
      RAS2 orbitals                              7
      RAS3 orbitals                              0
      Secondary orbitals                       299
      Deleted orbitals                           0
      Number of basis functions                467
--

++    CI expansion specifications:
      ----------------------------

      Number of CSFs                            21
      Number of determinants                    21
      Number of root(s) required                21
      Root chosen for geometry opt.             21
      CI roots used                              1     2     3     4     5     6     7     8     9    10
                                                11    12    13    14    15    16    17    18    19    20
                                                21
      weights                                0.048 0.048 0.048 0.048 0.048 0.048 0.048 0.048 0.048 0.048
                                             0.048 0.048 0.048 0.048 0.048 0.048 0.048 0.048 0.048 0.048
                                             0.048
      highest root included in the CI           21
      max. size of the explicit Hamiltonian     21
--

++    Optimization specifications:
      ----------------------------

      RASSCF algorithm: LK Cholesky
      Maximum number of macro iterations       200
      Maximum number of SX iterations          100
      Threshold for RASSCF energy            0.100E-07
      Threshold for max MO rotation          0.100E+00
      Threshold for max BLB element          0.100E-03
      Level shift parameter                  0.500E+00
      Make Quasi-Newton update
--

      Orbitals from runfile: guessorb orbitals
      The MO-coefficients are taken from guessorb on runfile

      Total molecular charge    0.00

      ************************************************************************************************************************
      *                                                                                                                      *
      *                                            Wave function control section                                             *
      *                                                                                                                      *
      ************************************************************************************************************************


                                         RASSCF iterations: Energy and convergence statistics
                                         ----------------------------------------------------

      Iter CI   SX   CI       RASSCF       Energy    max ROT     max BLB   max BLB  Level Ln srch  Step   QN   Walltime
          iter iter root      energy       change     param      element    value   shift minimum  type update hh:mm:ss
 Nr of preliminary CI iterations:   1
      Total energies have been shifted. Add               -13000.00 au
        1   1   11    0  -802.12190803    0.00E+00  -0.99E-01  153 458 1  0.20E+01*  4.68   0.00    SX    NO    0:10:38
        2   1   11    0  -807.84159609   -0.57E+01* -0.18E+00*  28 465 1 -0.59E+00*  2.89   0.00    SX    NO    0:04:36
        3   1   12    0  -811.25628030   -0.34E+01* -0.21E+00*  59 452 1 -0.46E+00*  1.77   0.00    SX    NO    0:04:52
        4   1   12    0  -813.56735870   -0.23E+01*  0.20E+00* 154 164 1  0.27E+00*  0.93   0.00    SX    NO    0:05:02
        5   1   12    0  -814.99501671   -0.14E+01*  0.13E+00* 156 167 1 -0.18E+00*  0.54   2.19    QN   YES    0:05:09
        6   1   13    0  -815.62387939   -0.63E+00*  0.14E+00* 156 167 1 -0.15E+00*  0.43   2.50    QN   YES    0:05:15
        7   1   13    0  -816.14250684   -0.52E+00*  0.14E+00* 156 167 1 -0.12E+00*  0.42   2.50    QN   YES    0:05:16
        8   1   13    0  -816.53569020   -0.39E+00*  0.13E+00* 156 167 1 -0.88E-01*  0.42   2.50    QN   YES    0:05:19
        9   1   13    0  -816.79746248   -0.26E+00*  0.13E+00*  59 452 1  0.83E-01*  0.38   1.96    QN   YES    0:05:21
       10   1   13    0  -816.93507594   -0.14E+00*  0.20E+00* 153 162 1 -0.99E-01*  0.37   1.99    QN   YES    0:05:19
       11   1   13    0  -817.05915986   -0.12E+00*  0.28E+00* 153 162 1 -0.13E+00*  0.38   2.50    QN   YES    0:05:12
       12   1   13    0  -817.18082102   -0.12E+00*  0.11E+00* 153 162 1 -0.73E-01*  0.36   1.18    QN   YES    0:05:05
       13   1   13    0  -817.21781018   -0.37E-01*  0.51E-01  156 167 1  0.49E-01*  0.35   1.41    QN   YES    0:05:13
       14   1   13    0  -817.25273269   -0.35E-01*  0.30E-01   59 452 1 -0.53E-01*  0.37   1.55    QN   YES    0:05:17
       15   1   13    0  -817.26762051   -0.15E-01* -0.67E-02   59 452 1 -0.20E-01*  0.37   1.42    QN   YES    0:05:17
       16   1   12    0  -817.27171854   -0.41E-02* -0.52E-02   59 452 1 -0.20E-01*  0.40   1.16    QN   YES    0:05:28
       17   1   11    0  -817.27235378   -0.64E-03*  0.21E-02   59 452 1  0.11E-01*  0.39   0.86    QN   YES    0:05:29
       18   1   10    0  -817.27256690   -0.21E-03*  0.14E-02  153 172 1 -0.15E-02*  0.40   1.26    QN   YES    0:05:38
       19   1    9    0  -817.27260695   -0.40E-04*  0.79E-03   28 465 1 -0.72E-03*  0.40   1.34    QN   YES    0:06:03
       20   1    9    0  -817.27261611   -0.92E-05* -0.48E-03   59 452 1 -0.41E-03*  0.40   1.26    QN   YES    0:06:07
       21   1    8    0  -817.27261852   -0.24E-05* -0.20E-03  156 172 1 -0.20E-03*  0.40   1.27    QN   YES    0:06:12
       22   1    8    0  -817.27261930   -0.78E-06*  0.11E-03  156 172 1 -0.92E-04   0.40   1.28    QN   YES    0:06:16
       23   1    7    0  -817.27261949   -0.20E-06* -0.43E-04   55 456 1 -0.37E-04   0.40   1.33    QN   YES    0:06:22
       24   1    7    0  -817.27261954   -0.47E-07* -0.24E-04  153 172 1 -0.25E-04   0.40   1.39    QN   YES    0:06:30
       25   1    6    0  -817.27261955   -0.12E-07* -0.15E-04  153 172 1 -0.13E-04   0.40   1.42    QN   YES    0:06:32
       26   1    5    0  -817.27261956   -0.32E-08   0.54E-05  153 173 1 -0.48E-05   0.40   1.20    QN   YES    0:06:37
      Convergence after 26 iterations
       27   1    5    0  -817.27261956   -0.46E-09   0.54E-05  141 169 1 -0.20E-05   0.40   1.20    QN   YES    0:06:40

      ************************************************************************************************************************
                                                      Wave function printout:
                       occupation of active orbitals, and spin coupling of open shells (u,d: Spin up or down)
      ************************************************************************************************************************

      Note: transformation to natural orbitals
      has been made, which may change the order of the CSFs.

      printout of CI-coefficients larger than  0.05 for root  1
      energy=  -13817.308022
      conf/sym  1111111     Coeff  Weight
             2  2u2uuuu   0.10765 0.01159
             3  u22uuuu   0.16281 0.02651
             4  2uu2uuu  -0.45566 0.20763
             5  2uuu2uu  -0.23126 0.05348
             6  2uuuu2u  -0.36823 0.13559
             7  2uuuuu2  -0.34818 0.12123
             8  u2u2uuu  -0.38660 0.14946
             9  u2uu2uu   0.22238 0.04945
            10  u2uuu2u  -0.06154 0.00379
            11  u2uuuu2   0.35856 0.12857
            12  uu22uuu  -0.11713 0.01372
            13  uu2u2uu   0.13000 0.01690
            14  uu2uu2u   0.14848 0.02205
            15  uu2uuu2   0.08169 0.00667
            17  uuu2u2u  -0.14295 0.02044
            18  uuuu22u  -0.10598 0.01123
            19  uuu2uu2   0.07640 0.00584
            21  uuuuu22   0.11494 0.01321

      printout of CI-coefficients larger than  0.05 for root  2
      energy=  -13817.307981
      conf/sym  1111111     Coeff  Weight
             2  2u2uuuu  -0.08396 0.00705
             3  u22uuuu   0.14691 0.02158
             4  2uu2uuu   0.44695 0.19976
             5  2uuu2uu  -0.22893 0.05241
             7  2uuuuu2  -0.42184 0.17795
             8  u2u2uuu  -0.40500 0.16403
             9  u2uu2uu  -0.20166 0.04067
            10  u2uuu2u  -0.31673 0.10032
            11  u2uuuu2  -0.39438 0.15553
            12  uu22uuu  -0.15838 0.02508
            14  uu2uu2u  -0.09695 0.00940
            17  uuu2u2u   0.09439 0.00891
            18  uuuu22u  -0.07706 0.00594
            19  uuu2uu2  -0.09896 0.00979
            20  uuuu2u2   0.09965 0.00993
            21  uuuuu22   0.09311 0.00867

      printout of CI-coefficients larger than  0.05 for root  3
      energy=  -13817.307151
      conf/sym  1111111     Coeff  Weight
             1  22uuuuu   0.21639 0.04682
             2  2u2uuuu  -0.19307 0.03728
             4  2uu2uuu  -0.15331 0.02350
             5  2uuu2uu   0.08110 0.00658
             6  2uuuu2u   0.52195 0.27243
             8  u2u2uuu  -0.22815 0.05205
            10  u2uuu2u  -0.08614 0.00742
            11  u2uuuu2  -0.12544 0.01574
            12  uu22uuu   0.46584 0.21701
            13  uu2u2uu   0.29671 0.08804
            14  uu2uu2u   0.08888 0.00790
            15  uu2uuu2   0.30328 0.09198
            16  uuu22uu   0.08463 0.00716
            17  uuu2u2u  -0.20885 0.04362
            18  uuuu22u  -0.16507 0.02725
            19  uuu2uu2   0.17303 0.02994
            21  uuuuu22   0.15307 0.02343

      printout of CI-coefficients larger than  0.05 for root  4
      energy=  -13817.306942
      conf/sym  1111111     Coeff  Weight
             2  2u2uuuu  -0.61987 0.38424
             3  u22uuuu  -0.06391 0.00408
             4  2uu2uuu  -0.28062 0.07875
             5  2uuu2uu  -0.26571 0.07060
             6  2uuuu2u  -0.07108 0.00505
             7  2uuuuu2   0.12961 0.01680
             8  u2u2uuu   0.30492 0.09298
             9  u2uu2uu  -0.23273 0.05417
            10  u2uuu2u  -0.17662 0.03120
            11  u2uuuu2  -0.11700 0.01369
            12  uu22uuu  -0.27070 0.07328
            14  uu2uu2u   0.14635 0.02142
            15  uu2uuu2  -0.07287 0.00531
            16  uuu22uu  -0.09512 0.00905
            17  uuu2u2u  -0.05589 0.00312
            18  uuuu22u  -0.18232 0.03324
            20  uuuu2u2  -0.18796 0.03533
            21  uuuuu22   0.25394 0.06449

      printout of CI-coefficients larger than  0.05 for root  5
      energy=  -13817.306662
      conf/sym  1111111     Coeff  Weight
             1  22uuuuu   0.23916 0.05720
             2  2u2uuuu  -0.18060 0.03262
             3  u22uuuu   0.32371 0.10479
             4  2uu2uuu   0.23607 0.05573
             5  2uuu2uu  -0.13844 0.01917
             7  2uuuuu2  -0.24013 0.05766
             8  u2u2uuu   0.31737 0.10072
             9  u2uu2uu   0.28173 0.07937
            10  u2uuu2u  -0.11706 0.01370
            11  u2uuuu2   0.15210 0.02314
            12  uu22uuu   0.33595 0.11286
            13  uu2u2uu  -0.52797 0.27876
            14  uu2uu2u   0.12249 0.01500
            17  uuu2u2u  -0.10898 0.01188
            18  uuuu22u   0.05912 0.00350
            19  uuu2uu2   0.12884 0.01660
            20  uuuu2u2  -0.10854 0.01178
            21  uuuuu22   0.05400 0.00292

      printout of CI-coefficients larger than  0.05 for root  6
      energy=  -13817.306260
      conf/sym  1111111     Coeff  Weight
             1  22uuuuu  -0.38275 0.14650
             2  2u2uuuu  -0.20800 0.04326
             3  u22uuuu   0.28788 0.08287
             5  2uuu2uu   0.48730 0.23746
             6  2uuuu2u  -0.16612 0.02760
             7  2uuuuu2  -0.12362 0.01528
             8  u2u2uuu  -0.11901 0.01416
             9  u2uu2uu   0.07520 0.00566
            10  u2uuu2u   0.07312 0.00535
            11  u2uuuu2  -0.19587 0.03837
            12  uu22uuu   0.14158 0.02004
            13  uu2u2uu   0.08845 0.00782
            14  uu2uu2u   0.17045 0.02905
            15  uu2uuu2  -0.25841 0.06678
            16  uuu22uu   0.25557 0.06531
            17  uuu2u2u  -0.18175 0.03303
            18  uuuu22u   0.07571 0.00573
            19  uuu2uu2  -0.25790 0.06651
            20  uuuu2u2  -0.28507 0.08126
            21  uuuuu22   0.08205 0.00673

      printout of CI-coefficients larger than  0.05 for root  7
      energy=  -13817.306133
      conf/sym  1111111     Coeff  Weight
             1  22uuuuu   0.17895 0.03202
             2  2u2uuuu   0.12416 0.01542
             3  u22uuuu   0.17182 0.02952
             4  2uu2uuu  -0.27669 0.07656
             5  2uuu2uu   0.15113 0.02284
             6  2uuuu2u   0.30208 0.09125
             7  2uuuuu2  -0.30881 0.09537
             9  u2uu2uu  -0.61522 0.37850
            11  u2uuuu2   0.20599 0.04243
            13  uu2u2uu  -0.18874 0.03562
            14  uu2uu2u   0.06965 0.00485
            15  uu2uuu2  -0.30186 0.09112
            16  uuu22uu   0.05851 0.00342
            18  uuuu22u  -0.10948 0.01199
            21  uuuuu22  -0.25220 0.06361

      printout of CI-coefficients larger than  0.05 for root  8
      energy=  -13817.305961
      conf/sym  1111111     Coeff  Weight
             2  2u2uuuu  -0.25686 0.06598
             3  u22uuuu  -0.15408 0.02374
             4  2uu2uuu   0.09010 0.00812
             5  2uuu2uu   0.07636 0.00583
             7  2uuuuu2   0.08630 0.00745
             8  u2u2uuu  -0.26595 0.07073
             9  u2uu2uu  -0.14695 0.02160
            10  u2uuu2u  -0.05468 0.00299
            11  u2uuuu2   0.43648 0.19051
            13  uu2u2uu  -0.11696 0.01368
            14  uu2uu2u  -0.56788 0.32249
            15  uu2uuu2  -0.16196 0.02623
            17  uuu2u2u  -0.23144 0.05357
            18  uuuu22u   0.28728 0.08253
            21  uuuuu22   0.31598 0.09984

      printout of CI-coefficients larger than  0.05 for root  9
      energy=  -13817.305940
      conf/sym  1111111     Coeff  Weight
             2  2u2uuuu   0.15394 0.02370
             4  2uu2uuu  -0.06211 0.00386
             5  2uuu2uu  -0.13018 0.01695
             6  2uuuu2u  -0.08348 0.00697
             7  2uuuuu2   0.24598 0.06050
             8  u2u2uuu   0.10213 0.01043
             9  u2uu2uu   0.07939 0.00630
            10  u2uuu2u  -0.67793 0.45959
            11  u2uuuu2   0.09333 0.00871
            12  uu22uuu   0.30900 0.09548
            13  uu2u2uu   0.21984 0.04833
            14  uu2uu2u  -0.08185 0.00670
            15  uu2uuu2  -0.34794 0.12106
            16  uuu22uu   0.08173 0.00668
            18  uuuu22u  -0.08087 0.00654
            19  uuu2uu2  -0.26098 0.06811
            20  uuuu2u2   0.11897 0.01415
            21  uuuuu22  -0.18545 0.03439

      printout of CI-coefficients larger than  0.05 for root 10
      energy=  -13817.305544
      conf/sym  1111111     Coeff  Weight
             2  2u2uuuu   0.12673 0.01606
             4  2uu2uuu   0.10167 0.01034
             6  2uuuu2u   0.05431 0.00295
             7  2uuuuu2   0.14043 0.01972
             8  u2u2uuu   0.10395 0.01081
            12  uu22uuu  -0.27663 0.07652
            13  uu2u2uu  -0.13057 0.01705
            14  uu2uu2u   0.15773 0.02488
            16  uuu22uu   0.44139 0.19483
            17  uuu2u2u  -0.40350 0.16281
            18  uuuu22u  -0.17204 0.02960
            19  uuu2uu2  -0.12592 0.01585
            20  uuuu2u2   0.55979 0.31336
            21  uuuuu22   0.31607 0.09990

      printout of CI-coefficients larger than  0.05 for root 11
      energy=  -13817.305488
      conf/sym  1111111     Coeff  Weight
             1  22uuuuu  -0.11818 0.01397
             2  2u2uuuu  -0.09998 0.01000
             3  u22uuuu   0.05816 0.00338
             4  2uu2uuu   0.06908 0.00477
             5  2uuu2uu  -0.05867 0.00344
             7  2uuuuu2  -0.05396 0.00291
             8  u2u2uuu   0.09147 0.00837
             9  u2uu2uu  -0.09827 0.00966
            10  u2uuu2u  -0.08825 0.00779
            11  u2uuuu2  -0.07194 0.00518
            12  uu22uuu  -0.05680 0.00323
            13  uu2u2uu   0.27605 0.07620
            14  uu2uu2u   0.24194 0.05854
            15  uu2uuu2  -0.16137 0.02604
            16  uuu22uu  -0.08344 0.00696
            17  uuu2u2u  -0.27324 0.07466
            18  uuuu22u   0.55685 0.31008
            19  uuu2uu2   0.51539 0.26562
            20  uuuu2u2   0.26131 0.06828
            21  uuuuu22  -0.19892 0.03957

      printout of CI-coefficients larger than  0.05 for root 12
      energy=  -13817.273335
      conf/sym  1111111     Coeff  Weight
             1  22uuuuu   0.21114 0.04458
             2  2u2uuuu  -0.23423 0.05486
             3  u22uuuu   0.20985 0.04403
             5  2uuu2uu   0.20463 0.04187
             6  2uuuu2u   0.34192 0.11691
             7  2uuuuu2   0.24667 0.06085
             8  u2u2uuu  -0.28234 0.07972
             9  u2uu2uu   0.30760 0.09462
            10  u2uuu2u  -0.18137 0.03290
            11  u2uuuu2   0.19983 0.03993
            12  uu22uuu  -0.42299 0.17892
            13  uu2u2uu  -0.08539 0.00729
            14  uu2uu2u   0.24196 0.05854
            16  uuu22uu  -0.05941 0.00353
            17  uuu2u2u   0.23433 0.05491
            18  uuuu22u   0.19165 0.03673
            19  uuu2uu2  -0.13464 0.01813
            21  uuuuu22  -0.17374 0.03019

      printout of CI-coefficients larger than  0.05 for root 13
      energy=  -13817.273065
      conf/sym  1111111     Coeff  Weight
             2  2u2uuuu   0.18746 0.03514
             3  u22uuuu   0.13791 0.01902
             4  2uu2uuu  -0.45756 0.20936
             7  2uuuuu2   0.24676 0.06089
             8  u2u2uuu  -0.18415 0.03391
            10  u2uuu2u  -0.13049 0.01703
            11  u2uuuu2  -0.50555 0.25558
            13  uu2u2uu  -0.48681 0.23698
            14  uu2uu2u  -0.17924 0.03213
            16  uuu22uu  -0.14095 0.01987
            17  uuu2u2u  -0.16941 0.02870
            18  uuuu22u   0.20931 0.04381
            19  uuu2uu2   0.06574 0.00432

      printout of CI-coefficients larger than  0.05 for root 14
      energy=  -13817.272710
      conf/sym  1111111     Coeff  Weight
             1  22uuuuu   0.36984 0.13678
             2  2u2uuuu  -0.12471 0.01555
             4  2uu2uuu  -0.18072 0.03266
             5  2uuu2uu  -0.25296 0.06399
             6  2uuuu2u   0.05512 0.00304
             7  2uuuuu2  -0.23736 0.05634
             8  u2u2uuu   0.13057 0.01705
             9  u2uu2uu   0.17726 0.03142
            10  u2uuu2u   0.29475 0.08688
            11  u2uuuu2  -0.18078 0.03268
            13  uu2u2uu   0.19833 0.03933
            14  uu2uu2u  -0.21545 0.04642
            15  uu2uuu2  -0.06675 0.00446
            16  uuu22uu   0.18136 0.03289
            17  uuu2u2u  -0.06268 0.00393
            18  uuuu22u   0.38726 0.14997
            19  uuu2uu2  -0.46649 0.21761
            20  uuuu2u2   0.07860 0.00618
            21  uuuuu22  -0.14294 0.02043

      printout of CI-coefficients larger than  0.05 for root 15
      energy=  -13817.272429
      conf/sym  1111111     Coeff  Weight
             1  22uuuuu  -0.11655 0.01358
             2  2u2uuuu   0.22673 0.05141
             3  u22uuuu   0.05945 0.00353
             4  2uu2uuu  -0.07901 0.00624
             5  2uuu2uu   0.16745 0.02804
             6  2uuuu2u   0.36018 0.12973
             7  2uuuuu2  -0.32060 0.10278
             8  u2u2uuu   0.34890 0.12173
             9  u2uu2uu   0.34833 0.12134
            10  u2uuu2u  -0.16155 0.02610
            11  u2uuuu2  -0.06090 0.00371
            12  uu22uuu  -0.31315 0.09806
            13  uu2u2uu   0.16629 0.02765
            14  uu2uu2u  -0.30883 0.09538
            15  uu2uuu2  -0.16457 0.02708
            16  uuu22uu  -0.20389 0.04157
            17  uuu2u2u  -0.09237 0.00853
            18  uuuu22u  -0.09299 0.00865
            19  uuu2uu2   0.13930 0.01940
            20  uuuu2u2  -0.12736 0.01622
            21  uuuuu22   0.22195 0.04926

      printout of CI-coefficients larger than  0.05 for root 16
      energy=  -13817.272332
      conf/sym  1111111     Coeff  Weight
             1  22uuuuu   0.34755 0.12079
             2  2u2uuuu   0.31921 0.10190
             3  u22uuuu   0.11272 0.01271
             4  2uu2uuu   0.11080 0.01228
             5  2uuu2uu   0.21446 0.04599
             6  2uuuu2u  -0.16106 0.02594
             7  2uuuuu2   0.05858 0.00343
             8  u2u2uuu   0.14509 0.02105
             9  u2uu2uu  -0.28408 0.08070
            10  u2uuu2u  -0.20405 0.04164
            12  uu22uuu  -0.06520 0.00425
            13  uu2u2uu   0.17219 0.02965
            14  uu2uu2u   0.16631 0.02766
            15  uu2uuu2   0.33706 0.11361
            16  uuu22uu  -0.15671 0.02456
            17  uuu2u2u  -0.11630 0.01353
            18  uuuu22u   0.31559 0.09960
            19  uuu2uu2  -0.22063 0.04868
            20  uuuu2u2  -0.25772 0.06642
            21  uuuuu22   0.32199 0.10368

      printout of CI-coefficients larger than  0.05 for root 17
      energy=  -13817.272180
      conf/sym  1111111     Coeff  Weight
             1  22uuuuu   0.07319 0.00536
             2  2u2uuuu   0.19540 0.03818
             3  u22uuuu  -0.38673 0.14956
             4  2uu2uuu   0.19331 0.03737
             5  2uuu2uu  -0.24356 0.05932
             6  2uuuu2u   0.14404 0.02075
             7  2uuuuu2   0.06382 0.00407
             8  u2u2uuu  -0.18760 0.03519
             9  u2uu2uu   0.08814 0.00777
            12  uu22uuu  -0.12087 0.01461
            13  uu2u2uu  -0.08983 0.00807
            14  uu2uu2u   0.24048 0.05783
            15  uu2uuu2  -0.22547 0.05084
            17  uuu2u2u  -0.47637 0.22692
            18  uuuu22u  -0.06250 0.00391
            20  uuuu2u2  -0.49882 0.24882
            21  uuuuu22  -0.16595 0.02754

      printout of CI-coefficients larger than  0.05 for root 18
      energy=  -13817.272098
      conf/sym  1111111     Coeff  Weight
             1  22uuuuu  -0.08190 0.00671
             2  2u2uuuu   0.12109 0.01466
             3  u22uuuu   0.31647 0.10016
             4  2uu2uuu   0.08107 0.00657
             5  2uuu2uu  -0.28761 0.08272
             6  2uuuu2u   0.18347 0.03366
             7  2uuuuu2   0.20418 0.04169
             8  u2u2uuu  -0.08177 0.00669
            10  u2uuu2u   0.35307 0.12466
            12  uu22uuu   0.19489 0.03798
            13  uu2u2uu   0.09693 0.00939
            14  uu2uu2u   0.17026 0.02899
            15  uu2uuu2  -0.36103 0.13034
            16  uuu22uu  -0.46778 0.21882
            19  uuu2uu2  -0.16956 0.02875
            20  uuuu2u2   0.10290 0.01059
            21  uuuuu22   0.33827 0.11443

      printout of CI-coefficients larger than  0.05 for root 19
      energy=  -13817.149165
      conf/sym  1111111     Coeff  Weight
             1  22uuuuu   0.55317 0.30600
             2  2u2uuuu   0.05085 0.00259
             3  u22uuuu   0.11912 0.01419
             5  2uuu2uu   0.13372 0.01788
             6  2uuuu2u  -0.25362 0.06432
             7  2uuuuu2   0.18032 0.03252
             8  u2u2uuu  -0.08329 0.00694
            10  u2uuu2u   0.13526 0.01829
            11  u2uuuu2  -0.18295 0.03347
            13  uu2u2uu   0.15346 0.02355
            14  uu2uu2u  -0.11868 0.01408
            15  uu2uuu2  -0.40663 0.16535
            16  uuu22uu   0.21865 0.04781
            17  uuu2u2u   0.16912 0.02860
            18  uuuu22u  -0.15685 0.02460
            19  uuu2uu2   0.40226 0.16182
            20  uuuu2u2  -0.11415 0.01303
            21  uuuuu22   0.13869 0.01924

      printout of CI-coefficients larger than  0.05 for root 20
      energy=  -13817.148064
      conf/sym  1111111     Coeff  Weight
             1  22uuuuu  -0.19940 0.03976
             2  2u2uuuu   0.08614 0.00742
             3  u22uuuu   0.54455 0.29653
             4  2uu2uuu   0.05632 0.00317
             5  2uuu2uu  -0.36520 0.13337
             6  2uuuu2u   0.14678 0.02154
             7  2uuuuu2   0.22755 0.05178
             9  u2uu2uu  -0.11736 0.01377
            10  u2uuu2u   0.06544 0.00428
            11  u2uuuu2   0.08934 0.00798
            12  uu22uuu  -0.13741 0.01888
            13  uu2u2uu   0.15583 0.02428
            14  uu2uu2u  -0.23931 0.05727
            15  uu2uuu2   0.23113 0.05342
            16  uuu22uu   0.37887 0.14354
            19  uuu2uu2   0.10837 0.01174
            20  uuuu2u2  -0.30134 0.09081
            21  uuuuu22  -0.13312 0.01772

      printout of CI-coefficients larger than  0.05 for root 21
      energy=  -13817.147550
      conf/sym  1111111     Coeff  Weight
             1  22uuuuu  -0.16288 0.02653
             2  2u2uuuu   0.17639 0.03111
             3  u22uuuu  -0.24145 0.05830
             4  2uu2uuu  -0.14276 0.02038
             5  2uuu2uu  -0.19151 0.03668
             6  2uuuu2u   0.19557 0.03825
             7  2uuuuu2  -0.10367 0.01075
            10  u2uuu2u  -0.11313 0.01280
            12  uu22uuu   0.07504 0.00563
            13  uu2u2uu  -0.09895 0.00979
            14  uu2uu2u   0.24377 0.05942
            15  uu2uuu2  -0.12763 0.01629
            16  uuu22uu   0.41060 0.16860
            17  uuu2u2u   0.46908 0.22003
            18  uuuu22u   0.32395 0.10494
            19  uuu2uu2   0.08837 0.00781
            20  uuuu2u2  -0.10921 0.01193
            21  uuuuu22   0.40041 0.16032

      Natural orbitals and occupation numbers for root  1
      sym 1:   1.600037   1.386132   1.013831   1.600037   1.000000   1.013831   1.386132

      Natural orbitals and occupation numbers for root  2
      sym 1:   1.535146   1.535146   1.000000   1.462756   1.002098   1.002098   1.462756

      Natural orbitals and occupation numbers for root  3
      sym 1:   1.595884   1.018728   1.595884   1.385388   1.018728   1.385388   1.000000

      Natural orbitals and occupation numbers for root  4
      sym 1:   1.642097   1.000000   1.642097   1.288433   1.288433   1.069471   1.069471

      Natural orbitals and occupation numbers for root  5
      sym 1:   1.050145   1.332636   1.617220   1.332636   1.617220   1.000000   1.050145

      Natural orbitals and occupation numbers for root  6
      sym 1:   1.640519   1.276399   1.083082   1.083082   1.640519   1.000000   1.276399

      Natural orbitals and occupation numbers for root  7
      sym 1:   1.360827   1.600854   1.000000   1.038319   1.600854   1.038319   1.360827

      Natural orbitals and occupation numbers for root  8
      sym 1:   1.000000   1.331547   1.610710   1.057743   1.057743   1.610710   1.331547

      Natural orbitals and occupation numbers for root  9
      sym 1:   1.000000   1.563276   1.428982   1.007742   1.007742   1.563276   1.428982

      Natural orbitals and occupation numbers for root 10
      sym 1:   1.034770   1.000000   1.034770   1.594556   1.594556   1.370674   1.370674

      Natural orbitals and occupation numbers for root 11
      sym 1:   1.023734   1.023734   1.000000   1.396005   1.580261   1.580261   1.396005

      Natural orbitals and occupation numbers for root 12
      sym 1:   1.313977   1.331428   1.354595   1.354595   1.313977   1.331428   1.000000

      Natural orbitals and occupation numbers for root 13
      sym 1:   1.368916   1.368916   1.303616   1.303616   1.327468   1.000000   1.327468

      Natural orbitals and occupation numbers for root 14
      sym 1:   1.309509   1.330882   1.000000   1.359609   1.309509   1.330882   1.359609

      Natural orbitals and occupation numbers for root 15
      sym 1:   1.331661   1.000000   1.315178   1.315178   1.353162   1.331661   1.353162

      Natural orbitals and occupation numbers for root 16
      sym 1:   1.312529   1.331294   1.312529   1.000000   1.356176   1.356176   1.331294

      Natural orbitals and occupation numbers for root 17
      sym 1:   1.000000   1.310511   1.352336   1.310511   1.337153   1.337153   1.352336

      Natural orbitals and occupation numbers for root 18
      sym 1:   1.000000   1.317039   1.317039   1.339419   1.343542   1.339419   1.343542

      Natural orbitals and occupation numbers for root 19
      sym 1:   1.640873   1.285758   1.000000   1.285758   1.073368   1.073368   1.640873

      Natural orbitals and occupation numbers for root 20
      sym 1:   1.000000   1.645295   1.645295   1.283771   1.283771   1.070934   1.070934

      Natural orbitals and occupation numbers for root 21
      sym 1:   1.069716   1.000000   1.069716   1.652451   1.277834   1.652451   1.277834

      ************************************************************************************************************************
      *                                                                                                                      *
      *                                                    Final results                                                     *
      *                                                                                                                      *
      ************************************************************************************************************************


++    Wave function specifications:
      -----------------------------

      Number of closed shell electrons         322
      Number of electrons in active shells       9
      Max number of holes in RAS1 space          0
      Max nr of electrons in RAS3 space          0
      Number of inactive orbitals              161
      Number of active orbitals                  7
      Number of secondary orbitals             299
      Spin quantum number                      2.5
      State symmetry                             1
--

++    Orbital specifications:
      -----------------------

      Symmetry species                           1
                                                 a
      Frozen orbitals                            0
      Inactive orbitals                        161
      Active orbitals                            7
      RAS1 orbitals                              0
      RAS2 orbitals                              7
      RAS3 orbitals                              0
      Secondary orbitals                       299
      Deleted orbitals                           0
      Number of basis functions                467
--

++    CI expansion specifications:
      ----------------------------

      Number of CSFs                            21
      Number of determinants                    21
      Number of root(s) required                21
      CI roots used                              1     2     3     4     5     6     7     8     9    10
                                                11    12    13    14    15    16    17    18    19    20
                                                21
      weights                                0.048 0.048 0.048 0.048 0.048 0.048 0.048 0.048 0.048 0.048
                                             0.048 0.048 0.048 0.048 0.048 0.048 0.048 0.048 0.048 0.048
                                             0.048
      highest root included in the CI           21
      Root passed to geometry opt.              21
--

++    Final optimization conditions:
      ------------------------------

      Average CI energy                          -13817.27261955
      RASSCF energy for state 21                 -13817.14755016
      Super-CI energy                                -0.00000000
      RASSCF energy change                           -0.00000000
      Max change in MO coefficients              -0.382E-05
      Max non-diagonal density matrix element     0.539E-05
      Maximum BLB matrix element                 -0.204E-05
      (orbital pair 141, 169 in symmetry   1)
      Norm of electronic gradient            0.382E+00
--


      Final state energy(ies):
      ------------------------

::    RASSCF root number  1 Total energy: -13817.30802228
::    RASSCF root number  2 Total energy: -13817.30798128
::    RASSCF root number  3 Total energy: -13817.30715066
::    RASSCF root number  4 Total energy: -13817.30694169
::    RASSCF root number  5 Total energy: -13817.30666196
::    RASSCF root number  6 Total energy: -13817.30626039
::    RASSCF root number  7 Total energy: -13817.30613257
::    RASSCF root number  8 Total energy: -13817.30596050
::    RASSCF root number  9 Total energy: -13817.30593993
::    RASSCF root number 10 Total energy: -13817.30554418
::    RASSCF root number 11 Total energy: -13817.30548772
::    RASSCF root number 12 Total energy: -13817.27333544
::    RASSCF root number 13 Total energy: -13817.27306474
::    RASSCF root number 14 Total energy: -13817.27270965
::    RASSCF root number 15 Total energy: -13817.27242899
::    RASSCF root number 16 Total energy: -13817.27233155
::    RASSCF root number 17 Total energy: -13817.27217977
::    RASSCF root number 18 Total energy: -13817.27209783
::    RASSCF root number 19 Total energy: -13817.14916530
::    RASSCF root number 20 Total energy: -13817.14806405
::    RASSCF root number 21 Total energy: -13817.14755016

++    Molecular orbitals:
      -------------------

      Pseudonatural active orbitals and approximate occupation numbers


      MOLECULAR ORBITALS FOR SYMMETRY SPECIES 1: a  

      INDEX  ENERGY  OCCUPATION COEFFICIENTS ...
          1-1983.9435    2.0000                                                                                                           
                 1 DY1    1s     ( 1.0000)
          2 -335.2578    2.0000                                                                                                           
                 2 DY1    2s     ( 1.0000)
          3 -298.0686    2.0000                                                                                                           
                 9 DY1    2px    ( 0.4795)  16 DY1    2py    ( 0.7311)  23 DY1    2pz    (-0.4853)
          4 -298.0685    2.0000                                                                                                           
                 9 DY1    2px    (-0.8643)  16 DY1    2py    ( 0.4892)  23 DY1    2pz    (-0.1169)
          5 -298.0685    2.0000                                                                                                           
                 9 DY1    2px    ( 0.1519)  16 DY1    2py    ( 0.4755)  23 DY1    2pz    ( 0.8665)
          6  -76.7433    2.0000                                                                                                           
                 3 DY1    3s     ( 1.0000)
          7  -65.0216    2.0000                                                                                                           
                10 DY1    3px    ( 0.4980)  17 DY1    3py    ( 0.7313)  24 DY1    3pz    (-0.4660)
          8  -65.0215    2.0000                                                                                                           
                10 DY1    3px    (-0.8604)  17 DY1    3py    ( 0.4836)  24 DY1    3pz    (-0.1604)
          9  -65.0214    2.0000                                                                                                           
                10 DY1    3px    ( 0.1081)  17 DY1    3py    ( 0.4809)  24 DY1    3pz    ( 0.8701)
         10  -49.5677    2.0000                                                                                                           
                30 DY1    3d2-   (-0.7068)  35 DY1    3d1-   ( 0.4430)  40 DY1    3d0    ( 0.4903)  45 DY1    3d1+   ( 0.1690)
                50 DY1    3d2+   ( 0.1879)
         11  -49.5676    2.0000                                                                                                           
                30 DY1    3d2-   (-0.3202)  35 DY1    3d1-   (-0.5440)  45 DY1    3d1+   ( 0.5253)  50 DY1    3d2+   (-0.5667)
      
         12  -49.5675    2.0000                                                                                                           
                30 DY1    3d2-   ( 0.5420)  35 DY1    3d1-   ( 0.1017)  40 DY1    3d0    ( 0.3344)  45 DY1    3d1+   ( 0.7070)
                50 DY1    3d2+   ( 0.2904)
         13  -49.5674    2.0000                                                                                                           
                30 DY1    3d2-   (-0.3134)  40 DY1    3d0    (-0.6943)  45 DY1    3d1+   ( 0.3661)  50 DY1    3d2+   ( 0.5261)
      
         14  -49.5674    2.0000                                                                                                           
                35 DY1    3d1-   ( 0.6989)  40 DY1    3d0    (-0.4017)  45 DY1    3d1+   ( 0.2483)  50 DY1    3d2+   (-0.5315)
      
         15  -20.5518    2.0000                                                                                                           
               165 O3     1s     (-0.9999)
         16  -20.5514    2.0000                                                                                                           
               195 O4     1s     (-0.9999)
[...]
  17     -0.706896546391    -0.024383301669     0.706896546391     0.003242209201
  18      0.024383301669     0.706896546391     0.706896546391     0.003242209201
  19     -0.024383301669     0.706896546391     0.706896546391     0.003242209201
  20      0.024383301669    -0.706896546391     0.706896546391     0.003242209201
  21     -0.024383301669    -0.706896546391     0.706896546391     0.003242209201
  22      0.479468262571     0.479468262571     0.734996850588     0.006011402970
  23     -0.479468262571     0.479468262571     0.734996850588     0.006011402970
  24      0.479468262571    -0.479468262571     0.734996850588     0.006011402970
  25     -0.479468262571    -0.479468262571     0.734996850588     0.006011402970
  26      0.479468262571     0.734996850588     0.479468262571     0.006011402970
  27     -0.479468262571     0.734996850588     0.479468262571     0.006011402970
  28      0.479468262571    -0.734996850588     0.479468262571     0.006011402970
  29     -0.479468262571    -0.734996850588     0.479468262571     0.006011402970
  30      0.734996850588     0.479468262571     0.479468262571     0.006011402970
  31     -0.734996850588     0.479468262571     0.479468262571     0.006011402970
  32      0.734996850588    -0.479468262571     0.479468262571     0.006011402970
  33     -0.734996850588    -0.479468262571     0.479468262571     0.006011402970
  34      0.192753315488     0.192753315488     0.962129055136     0.005981985059
  35     -0.192753315488     0.192753315488     0.962129055136     0.005981985059
  36      0.192753315488    -0.192753315488     0.962129055136     0.005981985059
  37     -0.192753315488    -0.192753315488     0.962129055136     0.005981985059
  38      0.192753315488     0.962129055136     0.192753315488     0.005981985059
  39     -0.192753315488     0.962129055136     0.192753315488     0.005981985059
  40      0.192753315488    -0.962129055136     0.192753315488     0.005981985059
  41     -0.192753315488    -0.962129055136     0.192753315488     0.005981985059
  42      0.962129055136     0.192753315488     0.192753315488     0.005981985059
  43     -0.962129055136     0.192753315488     0.192753315488     0.005981985059
  44      0.962129055136    -0.192753315488     0.192753315488     0.005981985059
  45     -0.962129055136    -0.192753315488     0.192753315488     0.005981985059
  46      0.693035796133     0.693035796133     0.198501311223     0.005964341288
  47     -0.693035796133     0.693035796133     0.198501311223     0.005964341288
  48      0.693035796133    -0.693035796133     0.198501311223     0.005964341288
  49     -0.693035796133    -0.693035796133     0.198501311223     0.005964341288
  50      0.693035796133     0.198501311223     0.693035796133     0.005964341288
  51     -0.693035796133     0.198501311223     0.693035796133     0.005964341288
  52      0.693035796133    -0.198501311223     0.693035796133     0.005964341288
  53     -0.693035796133    -0.198501311223     0.693035796133     0.005964341288
  54      0.198501311223     0.693035796133     0.693035796133     0.005964341288
  55     -0.198501311223     0.693035796133     0.693035796133     0.005964341288
  56      0.198501311223    -0.693035796133     0.693035796133     0.005964341288
  57     -0.198501311223    -0.693035796133     0.693035796133     0.005964341288
  58      0.360830211552     0.360830211552     0.860001812128     0.005443128475
  59     -0.360830211552     0.360830211552     0.860001812128     0.005443128475
  60      0.360830211552    -0.360830211552     0.860001812128     0.005443128475
  61     -0.360830211552    -0.360830211552     0.860001812128     0.005443128475
  62      0.360830211552     0.860001812128     0.360830211552     0.005443128475
  63     -0.360830211552     0.860001812128     0.360830211552     0.005443128475
  64      0.360830211552    -0.860001812128     0.360830211552     0.005443128475
  65     -0.360830211552    -0.860001812128     0.360830211552     0.005443128475
  66      0.860001812128     0.360830211552     0.360830211552     0.005443128475
  67     -0.860001812128     0.360830211552     0.360830211552     0.005443128475
  68      0.860001812128    -0.360830211552     0.360830211552     0.005443128475
  69     -0.860001812128    -0.360830211552     0.360830211552     0.005443128475
  70      0.649848616150     0.649848616150     0.394199888606     0.006067027592
  71     -0.649848616150     0.649848616150     0.394199888606     0.006067027592
  72      0.649848616150    -0.649848616150     0.394199888606     0.006067027592
  73     -0.649848616150    -0.649848616150     0.394199888606     0.006067027592
  74      0.649848616150     0.394199888606     0.649848616150     0.006067027592
  75     -0.649848616150     0.394199888606     0.649848616150     0.006067027592
  76      0.649848616150    -0.394199888606     0.649848616150     0.006067027592
  77     -0.649848616150    -0.394199888606     0.649848616150     0.006067027592
  78      0.394199888606     0.649848616150     0.649848616150     0.006067027592
  79     -0.394199888606     0.649848616150     0.649848616150     0.006067027592
  80      0.394199888606    -0.649848616150     0.649848616150     0.006067027592
  81     -0.394199888606    -0.649848616150     0.649848616150     0.006067027592
  82      0.193294501323     0.981140782843     0.000000000000     0.003007949555
  83     -0.193294501323     0.981140782843     0.000000000000     0.003007949555
  84      0.193294501323    -0.981140782843     0.000000000000     0.003007949555
  85     -0.193294501323    -0.981140782843     0.000000000000     0.003007949555
  86      0.981140782843     0.193294501323     0.000000000000     0.003007949555
  87     -0.981140782843     0.193294501323     0.000000000000     0.003007949555
  88      0.981140782843    -0.193294501323     0.000000000000     0.003007949555
  89     -0.981140782843    -0.193294501323     0.000000000000     0.003007949555
  90      0.193294501323     0.000000000000     0.981140782843     0.006015899110
  91     -0.193294501323     0.000000000000     0.981140782843     0.006015899110
  92      0.981140782843     0.000000000000     0.193294501323     0.006015899110
  93     -0.981140782843     0.000000000000     0.193294501323     0.006015899110
  94      0.000000000000     0.193294501323     0.981140782843     0.006015899110
  95      0.000000000000    -0.193294501323     0.981140782843     0.006015899110
  96      0.000000000000     0.981140782843     0.193294501323     0.006015899110
  97      0.000000000000    -0.981140782843     0.193294501323     0.006015899110
  98      0.380049491990     0.924966152699     0.000000000000     0.002881964603
  99     -0.380049491990     0.924966152699     0.000000000000     0.002881964603
 100      0.380049491990    -0.924966152699     0.000000000000     0.002881964603
 101     -0.380049491990    -0.924966152699     0.000000000000     0.002881964603
 102      0.924966152699     0.380049491990     0.000000000000     0.002881964603
 103     -0.924966152699     0.380049491990     0.000000000000     0.002881964603
 104      0.924966152699    -0.380049491990     0.000000000000     0.002881964603
 105     -0.924966152699    -0.380049491990     0.000000000000     0.002881964603
 106      0.380049491990     0.000000000000     0.924966152699     0.005763929206
 107     -0.380049491990     0.000000000000     0.924966152699     0.005763929206
 108      0.924966152699     0.000000000000     0.380049491990     0.005763929206
 109     -0.924966152699     0.000000000000     0.380049491990     0.005763929206
 110      0.000000000000     0.380049491990     0.924966152699     0.005763929206
 111      0.000000000000    -0.380049491990     0.924966152699     0.005763929206
 112      0.000000000000     0.924966152699     0.380049491990     0.005763929206
 113      0.000000000000    -0.924966152699     0.380049491990     0.005763929206
 114      0.289955882550     0.793453785658     0.535123047718     0.005916715253
 115     -0.289955882550     0.793453785658     0.535123047718     0.005916715253
 116      0.289955882550    -0.793453785658     0.535123047718     0.005916715253
 117     -0.289955882550    -0.793453785658     0.535123047718     0.005916715253
 118      0.289955882550     0.535123047718     0.793453785658     0.005916715253
 119     -0.289955882550     0.535123047718     0.793453785658     0.005916715253
 120      0.289955882550    -0.535123047718     0.793453785658     0.005916715253
 121     -0.289955882550    -0.535123047718     0.793453785658     0.005916715253
 122      0.793453785658     0.289955882550     0.535123047718     0.005916715253
 123     -0.793453785658     0.289955882550     0.535123047718     0.005916715253
 124      0.793453785658    -0.289955882550     0.535123047718     0.005916715253
 125     -0.793453785658    -0.289955882550     0.535123047718     0.005916715253
 126      0.793453785658     0.535123047718     0.289955882550     0.005916715253
 127     -0.793453785658     0.535123047718     0.289955882550     0.005916715253
 128      0.793453785658    -0.535123047718     0.289955882550     0.005916715253
 129     -0.793453785658    -0.535123047718     0.289955882550     0.005916715253
 130      0.535123047718     0.289955882550     0.793453785658     0.005916715253
 131     -0.535123047718     0.289955882550     0.793453785658     0.005916715253
 132      0.535123047718    -0.289955882550     0.793453785658     0.005916715253
 133     -0.535123047718    -0.289955882550     0.793453785658     0.005916715253
 134      0.535123047718     0.793453785658     0.289955882550     0.005916715253
 135     -0.535123047718     0.793453785658     0.289955882550     0.005916715253
 136      0.535123047718    -0.793453785658     0.289955882550     0.005916715253
 137     -0.535123047718    -0.793453785658     0.289955882550     0.005916715253
 138      0.096841214551     0.828080150669     0.552182074349     0.006072040053
 139     -0.096841214551     0.828080150669     0.552182074349     0.006072040053
 140      0.096841214551    -0.828080150669     0.552182074349     0.006072040053
 141     -0.096841214551    -0.828080150669     0.552182074349     0.006072040053
 142      0.096841214551     0.552182074349     0.828080150669     0.006072040053
 143     -0.096841214551     0.552182074349     0.828080150669     0.006072040053
 144      0.096841214551    -0.552182074349     0.828080150669     0.006072040053
 145     -0.096841214551    -0.552182074349     0.828080150669     0.006072040053
 146      0.828080150669     0.096841214551     0.552182074349     0.006072040053
 147     -0.828080150669     0.096841214551     0.552182074349     0.006072040053
 148      0.828080150669    -0.096841214551     0.552182074349     0.006072040053
 149     -0.828080150669    -0.096841214551     0.552182074349     0.006072040053
 150      0.828080150669     0.552182074349     0.096841214551     0.006072040053
 151     -0.828080150669     0.552182074349     0.096841214551     0.006072040053
 152      0.828080150669    -0.552182074349     0.096841214551     0.006072040053
 153     -0.828080150669    -0.552182074349     0.096841214551     0.006072040053
 154      0.552182074349     0.096841214551     0.828080150669     0.006072040053
 155     -0.552182074349     0.096841214551     0.828080150669     0.006072040053
 156      0.552182074349    -0.096841214551     0.828080150669     0.006072040053
 157     -0.552182074349    -0.096841214551     0.828080150669     0.006072040053
 158      0.552182074349     0.828080150669     0.096841214551     0.006072040053
 159     -0.552182074349     0.828080150669     0.096841214551     0.006072040053
 160      0.552182074349    -0.828080150669     0.096841214551     0.006072040053
 161     -0.552182074349    -0.828080150669     0.096841214551     0.006072040053
 162      0.183343464704     0.907465826531     0.378009189874     0.005664374808
 163     -0.183343464704     0.907465826531     0.378009189874     0.005664374808
 164      0.183343464704    -0.907465826531     0.378009189874     0.005664374808
 165     -0.183343464704    -0.907465826531     0.378009189874     0.005664374808
 166      0.183343464704     0.378009189874     0.907465826531     0.005664374808
 167     -0.183343464704     0.378009189874     0.907465826531     0.005664374808
 168      0.183343464704    -0.378009189874     0.907465826531     0.005664374808
 169     -0.183343464704    -0.378009189874     0.907465826531     0.005664374808
 170      0.907465826531     0.183343464704     0.378009189874     0.005664374808
 171     -0.907465826531     0.183343464704     0.378009189874     0.005664374808
 172      0.907465826531    -0.183343464704     0.378009189874     0.005664374808
 173     -0.907465826531    -0.183343464704     0.378009189874     0.005664374808
 174      0.907465826531     0.378009189874     0.183343464704     0.005664374808
 175     -0.907465826531     0.378009189874     0.183343464704     0.005664374808
 176      0.907465826531    -0.378009189874     0.183343464704     0.005664374808
 177     -0.907465826531    -0.378009189874     0.183343464704     0.005664374808
 178      0.378009189874     0.183343464704     0.907465826531     0.005664374808
 179     -0.378009189874     0.183343464704     0.907465826531     0.005664374808
 180      0.378009189874    -0.183343464704     0.907465826531     0.005664374808
 181     -0.378009189874    -0.183343464704     0.907465826531     0.005664374808
 182      0.378009189874     0.907465826531     0.183343464704     0.005664374808
 183     -0.378009189874     0.907465826531     0.183343464704     0.005664374808
 184      0.378009189874    -0.907465826531     0.183343464704     0.005664374808
 185     -0.378009189874    -0.907465826531     0.183343464704     0.005664374808
  --------------------------------------------------------------------------------
  The cut-off energy for the exact diagonalization of the Zeeman Hamiltonian is:
  E =  1439.914214000 cm(-1).
  The exact diagonalization of the Zeeman Hamiltonian included  16 exchange states.
  The magnetization vector was not calculated.
  Computation of the Zeeman splitting was not requested.

                         HIGH-FIELD POWDER MAGNETIZATION
                              (Units: Bohr magneton)

-----------|---------------|---------------|---------------|---------------|---------------|
   H(T)    |STATISTICAL SUM|     1.900 K.  |     3.000 K.  |     5.000 K.  |     7.000 K.  |
-----------|---------------|---------------|---------------|---------------|---------------|
  0.000100 |     1.9998925 |  0.0011262256 |  0.0007144403 |  0.0004299341 |  0.0003080029 |
  0.100000 |     1.8980309 |  1.1003495229 |  0.7077351890 |  0.4284731765 |  0.3074691602 |
  0.200000 |     1.8064596 |  2.0637799714 |  1.3773090607 |  0.8483492151 |  0.6117676831 |
  0.300000 |     1.7242257 |  2.8223448255 |  1.9796860045 |  1.2518348091 |  0.9098798704 |
  0.400000 |     1.6503772 |  3.3802580498 |  2.4995173718 |  1.6325773758 |  1.1990827561 |
  0.500000 |     1.5840591 |  3.7769074639 |  2.9342327189 |  1.9860275234 |  1.4770529419 |
  0.600000 |     1.5245034 |  4.0562509953 |  3.2900050727 |  2.3095070165 |  1.7419343331 |
  0.700000 |     1.4710206 |  4.2541492307 |  3.5773722363 |  2.6020371843 |  1.9923650841 |
  0.800000 |     1.4229914 |  4.3964406135 |  3.8080047964 |  2.8640207246 |  2.2274677323 |
  0.900000 |     1.3798598 |  4.5007654671 |  3.9928591479 |  3.0968699948 |  2.4468103593 |
  1.000000 |     1.3411263 |  4.5789222884 |  4.1413754168 |  3.3026516089 |  2.6503483227 |
  1.100000 |     1.3063425 |  4.6387781769 |  4.2612963770 |  3.4837872504 |  2.8383559190 |
  1.200000 |     1.2751056 |  4.6856132618 |  4.3587906383 |  3.6428252058 |  3.0113558842 |
  1.300000 |     1.2470540 |  4.7230139088 |  4.4386905647 |  3.7822804115 |  3.1700525677 |
  1.400000 |     1.2218628 |  4.7534525732 |  4.5047476900 |  3.9045323042 |  3.3152724868 |
  1.500000 |     1.1992403 |  4.7786619010 |  4.5598632492 |  4.0117671104 |  3.4479141289 |
  1.600000 |     1.1789246 |  4.7998768078 |  4.6062801171 |  4.1059518854 |  3.5689074617 |
  1.700000 |     1.1606805 |  4.8179924237 |  4.6457357912 |  4.1888297717 |  3.6791826764 |
  1.800000 |     1.1442968 |  4.8336683188 |  4.6795813112 |  4.2619284522 |  3.7796471345 |
  1.900000 |     1.1295837 |  4.8473981850 |  4.7088723782 |  4.3265760493 |  3.8711692534 |
  2.000000 |     1.1163708 |  4.8595570827 |  4.7344386310 |  4.3839205679 |  3.9545680194 |
  2.100000 |     1.1045053 |  4.8704339384 |  4.7569361255 |  4.4349503668 |  4.0306069079 |
  2.200000 |     1.0938497 |  4.8802542251 |  4.7768870669 |  4.4805141250 |  4.0999911381 |
  2.300000 |     1.0842806 |  4.8891960162 |  4.7947099282 |  4.5213394489 |  4.1633673680 |
  2.400000 |     1.0756872 |  4.8974015092 |  4.8107423459 |  4.5580497023 |  4.2213251034 |
  2.500000 |     1.0679701 |  4.9049854077 |  4.8252585903 |  4.5911789234 |  4.2743992540 |
  2.600000 |     1.0610399 |  4.9120410989 |  4.8384829548 |  4.6211848566 |  4.3230734035 |
  2.700000 |     1.0548163 |  4.9186452607 |  4.8506000708 |  4.6484602214 |  4.3677834719 |
  2.800000 |     1.0492273 |  4.9248613404 |  4.8617628949 |  4.6733423842 |  4.4089215357 |
  2.900000 |     1.0442082 |  4.9307422089 |  4.8720989288 |  4.6961216157 |  4.4468396424 |
  3.000000 |     1.0397009 |  4.9363322082 |  4.8817150918 |  4.7170481138 |  4.4818535091 |
  3.100000 |     1.0356532 |  4.9416687466 |  4.8907015577 |  4.7363379619 |  4.5142460327 |
  3.200000 |     1.0320181 |  4.9467835529 |  4.8991347962 |  4.7541781752 |  4.5442705711 |
  3.300000 |     1.0287538 |  4.9517036717 |  4.9070799960 |  4.7707309717 |  4.5721539724 |
  3.400000 |     1.0258222 |  4.9564522596 |  4.9145930070 |  4.7861373854 |  4.5980993486 |
  3.500000 |     1.0231896 |  4.9610492265 |  4.9217219062 |  4.8005203230 |  4.6222885948 |
  3.600000 |     1.0208254 |  4.9655117569 |  4.9285082656 |  4.8139871532 |  4.6448846654 |
  3.700000 |     1.0187022 |  4.9698547360 |  4.9349881873 |  4.8266318992 |  4.6660336218 |
  3.800000 |     1.0167956 |  4.9740911001 |  4.9411931494 |  4.8385371000 |  4.6858664680 |
  3.900000 |     1.0150833 |  4.9782321261 |  4.9471507039 |  4.8497753908 |  4.7045007904 |
  4.000000 |     1.0135456 |  4.9822876734 |  4.9528850537 |  4.8604108480 |  4.7220422214 |
  4.100000 |     1.0121647 |  4.9862663851 |  4.9584175327 |  4.8705001344 |  4.7385857416 |
  4.200000 |     1.0109245 |  4.9901758579 |  4.9637670062 |  4.8800934782 |  4.7542168386 |
  4.300000 |     1.0098109 |  4.9940227848 |  4.9689502076 |  4.8892355090 |  4.7690125357 |
  4.400000 |     1.0088107 |  4.9978130761 |  4.9739820224 |  4.8979659749 |  4.7830423060 |
  4.500000 |     1.0079125 |  5.0015519628 |  4.9788757277 |  4.9063203573 |  4.7963688832 |
  4.600000 |     1.0071059 |  5.0052440846 |  4.9836431967 |  4.9143304012 |  4.8090489813 |
  4.700000 |     1.0063816 |  5.0088935645 |  4.9882950729 |  4.9220245709 |  4.8211339333 |
  4.800000 |     1.0057311 |  5.0125040743 |  4.9928409189 |  4.9294284443 |  4.8326702582 |
  4.900000 |     1.0051469 |  5.0160788899 |  4.9972893454 |  4.9365650544 |  4.8437001636 |
  5.000000 |     1.0046222 |  5.0196209391 |  5.0016481213 |  4.9434551849 |  4.8542619935 |
-----------|---------------|---------------|---------------|---------------|---------------|
--- Stop Module: single_aniso at Sun Nov 17 00:53:20 2024 /rc=_RC_ALL_IS_WELL_ ---
*** files: xmldump
    saved to directory /media/korden/5fb66ce1-8053-4a4f-9303-c4fa91c2cea8/home/korden/calc/orca/Artem/D4d/magnetic_prop
--- Module single_aniso spent 28 seconds ---

>>> COPY dyacac_mod.aniso /media/korden/5fb66ce1-8053-4a4f-9303-c4fa91c2cea8/home/korden/calc/orca/Artem/D4d/magnetic_prop/Dy_acacmod.aniso

    Timing: Wall=15873.19 User=15805.03 System=64.95