   This run of MOLCAS is using the pymolcas driver

                             OPE
                             OPE          NMOL  CASOP  ENMOLC A   SO
                 OPE        NMOLC        AS  OP EN  MO LC     AS  OP
                OPENM       OL CA        SO  PE NM  OL CA     SOP EN
                OP EN      MO   LC       AS  OP ENMOL  CASO   PENMOL
                OP  EN     MO   LC       AS  OP EN     MO     LC ASO
               OP   E  NMOL  C  AS       OP  EN MO     LC     AS  OP
               OP  E   NMO   LC AS        OPEN  MO     LCASOP EN   M
               O  PEN   MO  LCA  SO
            OPE   NMO   L   CAS    OP
        OPENMOL  CASOP     ENMOL   CASOPE
     OPENMOLCA   SOPENMOLCASOPEN   MOLCASOPE
    OPENMOLCAS   OP           EN   MOL    CAS
    OPENMOLCAS       OP  ENM        O     LCA
    OPENMOLCAS    OPEN  MOLCASO     P  E  NMO
    OPENMOLCAS     OP               E  N  MOL
    OPENMOLCA   SO           PENM   O  L  CAS    OPEN    MO    LCAS
    OPENMOLCA   SOP           ENM   O  L  CAS   OP  EN  MOLC  AS   O
    OPENMOLCA   SOPE           NM      O  LCA   S      OP  EN MO
    OPENMOLC                AS         O  PEN   M      OL  CA  SOPE
    OPENMO        LCASOPE  NMOL        C  ASO   P      ENMOLC     AS
    OPE     NMO      LCA  SO     P     E   NM   OL  CA SO  PE N   MO
          OPENMOLCA            SOPE   NMO        LCAS  O    P  ENMO
     OPENMOLCASOPENMOLCASOPENMOLCASOPENMOLCA
        OPENMOLCASOPENMOLCASOPENMOLCASOPE
            OPENMOLCASOPENMOLCASOPENM
               OPENMOLCASOPENMOLCA        version: v19.11 ?
                   OPENMOLCASO
                       OPE                tag:

 OpenMolcas is free software; you can redistribute it and/or modify it
 under the terms of the GNU Lesser General Public License version 2.1.
 OpenMolcas is distributed in the hope that it will be useful, but it
 is provided "as is" and without any express or implied warranties.
 For more details see the full text of the license in the file
 LICENSE or in <http://www.gnu.org/licenses/>.

                 Copyright (C) The OpenMolcas Authors
           For the author list and the recommended citation,
                   consult the file CONTRIBUTORS.md

           *************************************************
           * pymolcas version py2.06                       *
           *   build 99e611e35fc7aec87fd6f34cfa558dd4      *
           *   (after the EMIL interpreter by V. Veryazov) *
           *************************************************


   ------------------------------------------------------------------------------------------------------------
  |
  |              Project: XOPLIA
  |       Submitted from: /media/korden/5fb66ce1-8053-4a4f-9303-c4fa91c2cea8/home/korden/calc/orca/Artem/XOPLIA
  |         Scratch area: /tmp/XOPLIA
  |      Save outputs to: /media/korden/5fb66ce1-8053-4a4f-9303-c4fa91c2cea8/home/korden/calc/orca/Artem/XOPLIA
  |               Molcas: /usr/share/openmolcas
  |
  | Scratch area is empty
  |
  |        MOLCAS_COLOR = YES
  |       MOLCAS_DRIVER = /usr/bin/pymolcas
  | MOLCAS_KEEP_WORKDIR = YES
  |      MOLCAS_MAXITER = 100
  |       MOLCAS_MOLDEN = YES
  |  MOLCAS_NEW_WORKDIR = NO
  |       MOLCAS_NPROCS = 1
  |        MOLCAS_PRINT = NORMAL
  |         MOLCAS_SAVE = ORIG
  |       MOLCAS_SOURCE = /home/korden/build
  |    MOLCAS_STRUCTURE = 0
  |         MOLCAS_TRAP = YES
  |
   ------------------------------------------------------------------------------------------------------------

++ ---------   Input file   ---------

&GATEWAY
Douglas-Kroll

AMFI
ANGM
 0.321000000 3.598000000 -1.585000000  Angstrom

Basis Set
N.ANO-RCC-VTZP.
 N1    0.647000000 7.093000000 1.575000000    Angstrom
 N2    1.045000000 5.116000000 0.331000000    Angstrom
 N3    -0.647000000 5.980000000 -1.575000000    Angstrom
 N4    -1.045000000 7.957000000 -0.331000000    Angstrom
End of Basis Set

Basis Set
C.ANO-RCC-MB.
 C1    1.508000000 6.653000000 2.509000000    Angstrom
 C2    2.175000000 5.459000000 2.388000000    Angstrom
 C3    1.911000000 4.712000000 1.262000000    Angstrom
 C4    0.466000000 6.294000000 0.526000000    Angstrom
 C5    -1.508000000 6.420000000 -2.509000000    Angstrom
 C6    -2.175000000 7.614000000 -2.388000000    Angstrom
 C7    -1.911000000 8.361000000 -1.262000000    Angstrom
 C8    -0.466000000 6.779000000 -0.526000000    Angstrom
 C9    -3.752000000 2.849000000 -3.758000000    Angstrom
 C10    -2.853000000 3.221000000 -2.613000000    Angstrom
 C11    -3.437000000 3.608000000 -1.391000000    Angstrom
 C12    -2.701000000 3.847000000 -0.258000000    Angstrom
 C13    -3.426000000 4.377000000 0.975000000    Angstrom
 C14    4.963000000 3.518000000 -1.836000000    Angstrom
 C15    3.557000000 3.810000000 -2.296000000    Angstrom
 C16    3.350000000 4.217000000 -3.625000000    Angstrom
 C17    2.139000000 4.586000000 -4.117000000    Angstrom
 C18    2.064000000 5.108000000 -5.547000000    Angstrom
 C19    1.702000000 0.307000000 1.374000000    Angstrom
 C20    1.484000000 0.952000000 0.046000000    Angstrom
 C21    2.024000000 0.356000000 -1.111000000    Angstrom
 C22    1.716000000 0.771000000 -2.372000000    Angstrom
 C23    2.380000000 0.022000000 -3.516000000    Angstrom
End of Basis Set

Basis Set
H.ANO-RCC-MB.
 H1    1.659000000 7.186000000 3.281000000    Angstrom
 H2    2.788000000 5.163000000 3.050000000    Angstrom
 H3    2.361000000 3.884000000 1.145000000    Angstrom
 H4    -1.659000000 5.887000000 -3.281000000    Angstrom
 H5    -2.788000000 7.911000000 -3.050000000    Angstrom
 H6    -2.361000000 9.189000000 -1.145000000    Angstrom
 H7    -3.698000000 1.884000000 -3.914000000    Angstrom
 H8    -4.676000000 3.093000000 -3.541000000    Angstrom
 H9    -3.468000000 3.327000000 -4.564000000    Angstrom
 H10    -4.381000000 3.708000000 -1.350000000    Angstrom
 H11    4.999000000 2.620000000 -1.446000000    Angstrom
 H12    5.572000000 3.568000000 -2.601000000    Angstrom
 H13    5.229000000 4.178000000 -1.163000000    Angstrom
 H14    4.098000000 4.236000000 -4.211000000    Angstrom
 H15    0.841000000 0.016000000 1.741000000    Angstrom
 H16    2.293000000 -0.468000000 1.269000000    Angstrom
 H17    2.115000000 0.952000000 1.986000000    Angstrom
 H18    2.631000000 -0.369000000 -1.007000000    Angstrom
End of Basis Set

Basis Set
Dy.ANO-RCC-VTZP.
 Dy1    0.321000000 3.598000000 -1.585000000    Angstrom
End of Basis Set

Basis Set
O.ANO-RCC-VTZP.
 O1    -1.616000000 3.172000000 -2.800000000    Angstrom
 O2    -1.464000000 3.722000000 -0.091000000    Angstrom
 O3    2.641000000 3.682000000 -1.463000000    Angstrom
 O4    1.006000000 4.583000000 -3.541000000    Angstrom
 O5    0.803000000 2.003000000 0.024000000    Angstrom
 O6    0.933000000 1.699000000 -2.728000000    Angstrom
End of Basis Set

Basis Set
F.ANO-RCC-MB.
 F1    -2.947000000 5.551000000 1.316000000    Angstrom
 F2    -4.723000000 4.497000000 0.845000000    Angstrom
 F3    -3.244000000 3.606000000 2.012000000    Angstrom
 F4    3.219000000 5.049000000 -6.195000000    Angstrom
 F5    1.176000000 4.451000000 -6.270000000    Angstrom
 F6    1.673000000 6.382000000 -5.564000000    Angstrom
 F7    2.911000000 -1.141000000 -3.151000000    Angstrom
 F8    3.349000000 0.726000000 -4.023000000    Angstrom
 F9    1.518000000 -0.294000000 -4.457000000    Angstrom
End of Basis Set

&SEWARD
HIGH Cholesky

&RASSCF
SYMM
1
CIMX
200
charge
0
Spin
6
ciroot
21 21 1
Nactel
9 0 0
Ras2
7
ORBL
nocore
ORBA
compact

>>> COPY $Project.JobIph JOB001

&RASSI
spinorbit
nrofjobiphs=1 21
1 2 3 4 5 6 7 8 9 10 11 12 13 14 15 16 17 18 19 20 21
mees
PROP
3
'ANGMOM' 1
'ANGMOM' 2
'ANGMOM' 3

&SINGLE_ANISO
MLTP
8
2 2 2 2 2 2 2 2
CRYS
Dy
XFIE
0.5
TINT
0 300 301
HINT
0 5 51
TMAG
3 2.0 4.0 6.0
UBAR

>>> COPY $Project.aniso $CurrDir/XOPLIA_new.aniso

-- ----------------------------------

--- Start Module: gateway at Sat Mar 29 21:59:46 2025 ---

()()()()()()()()()()()()()()()()()()()()()()()()()()()()()()()()()()()()()()()()()()()()()()()()()()

                                              &GATEWAY

                                   only a single process is used
                       available to each process: 32 GB of memory, 1 thread?
                                             pid: 8096
()()()()()()()()()()()()()()()()()()()()()()()()()()()()()()()()()()()()()()()()()()()()()()()()()()


++    Symmetry information:
      ---------------------

                    Character Table for C1 

                             E  
                    a        1  x, y, xy, Rz, z, xz, Ry, yz, Rx, I
--


++    Basis set information:
      ----------------------


      Basis set label: N.ANO-RCC...4S3P2D1F.

      Electronic valence basis set:
      ------------------
      Associated Effective Charge   7.000000 au
      Associated Actual Charge      7.000000 au
      Nuclear Model: Point charge

      Shell  nPrim  nBasis  Cartesian Spherical Contaminant
         s      14       4        X                  
         p       9       3        X                  
         d       4       2                 X         
         f       3       1                 X         


      Basis set label: C.ANO-RCC...2S1P.

      Electronic valence basis set:
      ------------------
      Associated Effective Charge   6.000000 au
      Associated Actual Charge      6.000000 au
      Nuclear Model: Point charge

      Shell  nPrim  nBasis  Cartesian Spherical Contaminant
         s      14       2        X                  
         p       9       1        X                  


      Basis set label: H.ANO-RCC...1S.

      Electronic valence basis set:
      ------------------
      Associated Effective Charge   1.000000 au
      Associated Actual Charge      1.000000 au
      Nuclear Model: Point charge

      Shell  nPrim  nBasis  Cartesian Spherical Contaminant
         s       8       1        X                  


      Basis set label: DY.ANO-RCC...8S7P5D3F2G1H.

      Electronic valence basis set:
      ------------------
      Associated Effective Charge  66.000000 au
      Associated Actual Charge     66.000000 au
      Nuclear Model: Point charge

      Shell  nPrim  nBasis  Cartesian Spherical Contaminant
         s      25       8        X                  
         p      22       7        X                  
         d      15       5                 X         
         f      11       3                 X         
         g       4       2                 X         
         h       2       1                 X         


      Basis set label: O.ANO-RCC...4S3P2D1F.

      Electronic valence basis set:
      ------------------
      Associated Effective Charge   8.000000 au
      Associated Actual Charge      8.000000 au
      Nuclear Model: Point charge

      Shell  nPrim  nBasis  Cartesian Spherical Contaminant
         s      14       4        X                  
         p       9       3        X                  
         d       4       2                 X         
         f       3       1                 X         


      Basis set label: F.ANO-RCC...2S1P.

      Electronic valence basis set:
      ------------------
      Associated Effective Charge   9.000000 au
      Associated Actual Charge      9.000000 au
      Nuclear Model: Point charge

      Shell  nPrim  nBasis  Cartesian Spherical Contaminant
         s      14       2        X                  
         p       9       1        X                  
--


++    Molecular structure info:
      -------------------------

                    ************************************************ 
                    **** Cartesian Coordinates / Bohr, Angstrom **** 
                    ************************************************ 

     Center  Label                x              y              z                     x              y              z
        1      N1               1.222653      13.403827       2.976319              0.647000       7.093000       1.575000
        2      N2               1.974764       9.667839       0.625499              1.045000       5.116000       0.331000
        3      N3              -1.222653      11.300562      -2.976319             -0.647000       5.980000      -1.575000
        4      N4              -1.974764      15.036551      -0.625499             -1.045000       7.957000      -0.331000
        5      C1               2.849707      12.572348       4.741323              1.508000       6.653000       2.509000
        6      C2               4.110154      10.316015       4.512666              2.175000       5.459000       2.388000
        7      C3               3.611267       8.904389       2.384834              1.911000       4.712000       1.262000
        8      C4               0.880612      11.893936       0.993996              0.466000       6.294000       0.526000
        9      C5              -2.849707      12.132042      -4.741323             -1.508000       6.420000      -2.509000
       10      C6              -4.110154      14.388375      -4.512666             -2.175000       7.614000      -2.388000
       11      C7              -3.611267      15.800000      -2.384834             -1.911000       8.361000      -1.262000
       12      C8              -0.880612      12.810453      -0.993996             -0.466000       6.779000      -0.526000
       13      C9              -7.090252       5.383830      -7.101591             -3.752000       2.849000      -3.758000
       14      C10             -5.391389       6.086808      -4.937854             -2.853000       3.221000      -2.613000
       15      C11             -6.494989       6.818132      -2.628609             -3.437000       3.608000      -1.391000
       16      C12             -5.104150       7.269776      -0.487549             -2.701000       3.847000      -0.258000
       17      C13             -6.474202       8.271331       1.842483             -3.426000       4.377000       0.975000
       18      C14              9.378711       6.648057      -3.469537              4.963000       3.518000      -1.836000
       19      C15              6.721756       7.199857      -4.338811              3.557000       3.810000      -2.296000
       20      C16              6.330583       7.968975      -6.850257              3.350000       4.217000      -3.625000
       21      C17              4.042124       8.666284      -7.780002              2.139000       4.586000      -4.117000
       22      C18              3.900395       9.652721     -10.482311              2.064000       5.108000      -5.547000
       23      C19              3.216314       0.580146       2.596484              1.702000       0.307000       1.374000
       24      C20              2.804354       1.799019       0.086927              1.484000       0.952000       0.046000
       25      C21              3.824806       0.672743      -2.099486              2.024000       0.356000      -1.111000
       26      C22              3.242770       1.456979      -4.482430              1.716000       0.771000      -2.372000
       27      C23              4.497548       0.041574      -6.644277              2.380000       0.022000      -3.516000
       28      H1               3.135056      13.579572       6.200191              1.659000       7.186000       3.281000
       29      H2               5.268556       9.756656       5.763665              2.788000       5.163000       3.050000
       30      H3               4.461643       7.339696       2.163736              2.361000       3.884000       1.145000
       31      H4              -3.135056      11.124818      -6.200191             -1.659000       5.887000      -3.281000
       32      H5              -5.268556      14.949623      -5.763665             -2.788000       7.911000      -3.050000
       33      H6              -4.461643      17.364693      -2.163736             -2.361000       9.189000      -1.145000
       34      H7              -6.988207       3.560244      -7.396388             -3.698000       1.884000      -3.914000
       35      H8              -8.836359       5.844923      -6.691520             -4.676000       3.093000      -3.541000
       36      H9              -6.553570       6.287119      -8.624710             -3.468000       3.327000      -4.564000
       37      H10             -8.278890       7.007104      -2.551130             -4.381000       3.708000      -1.350000
       38      H11              9.446741       4.951082      -2.732544              4.999000       2.620000      -1.446000
       39      H12             10.529554       6.742543      -4.915178              5.572000       3.568000      -2.601000
       40      H13              9.881378       7.895276      -2.197751              5.229000       4.178000      -1.163000
       41      H14              7.744098       8.004880      -7.957637              4.098000       4.236000      -4.211000
       42      H15              1.589260       0.030236       3.290013              0.841000       0.016000       1.741000
       43      H16              4.333142      -0.884392       2.398062              2.293000      -0.468000       1.269000
       44      H17              3.996771       1.799019       3.752996              2.115000       0.952000       1.986000
       45      H18              4.971869      -0.697309      -1.902954              2.631000      -0.369000      -1.007000
       46      DY1              0.606602       6.799235      -2.995216              0.321000       3.598000      -1.585000
       47      O1              -3.053797       5.994211      -5.291233             -1.616000       3.172000      -2.800000
       48      O2              -2.766559       7.033561      -0.171965             -1.464000       3.722000      -0.091000
       49      O3               4.990767       6.957972      -2.764669              2.641000       3.682000      -1.463000
       50      O4               1.901064       8.660615      -6.691520              1.006000       4.583000      -3.541000
       51      O5               1.517450       3.785121       0.045353              0.803000       2.003000       0.024000
       52      O6               1.763114       3.210645      -5.155173              0.933000       1.699000      -2.728000
       53      F1              -5.569023      10.489870       2.486880             -2.947000       5.551000       1.316000
       54      F2              -8.925176       8.498098       1.596819             -4.723000       4.497000       0.845000
       55      F3              -6.130272       6.814352       3.802129             -3.244000       3.606000       2.012000
       56      F4               6.083028       9.541227     -11.706853              3.219000       5.049000      -6.195000
       57      F5               2.222318       8.411171     -11.848583              1.176000       4.451000      -6.270000
       58      F6               3.161512      12.060232     -10.514436              1.673000       6.382000      -5.564000
       59      F7               5.500993      -2.156178      -5.954527              2.911000      -1.141000      -3.151000
       60      F8               6.328693       1.371941      -7.602368              3.349000       0.726000      -4.023000
       61      F9               2.868604      -0.555579      -8.422509              1.518000      -0.294000      -4.457000

                    ************************************************* 
                    **** InterNuclear Distances / Bohr, Angstrom **** 
                    ************************************************* 

     Atom centers         Bohr        Angstrom
   29 H2        6 C2      1.794373        0.949541
   30 H3        7 C3      1.794517        0.949617
   33 H6       11 C7    
   32 H5       10 C6      1.794963        0.949854
   37 H10      15 C11     1.795555        0.950167
   28 H1        5 C1      1.795612        0.950197
   31 H4        9 C5    
   41 H14      20 C16     1.795997        0.950400
   45 H18      25 C21     1.797615        0.951257
   34 H7       13 C9      1.850077        0.979018
   39 H12      18 C14     1.850201        0.979084
   36 H9       13 C9      1.850365        0.979171
   40 H13      18 C14     1.850856        0.979431
   38 H11      18 C14     1.851353        0.979694
   35 H8       13 C9      1.851933        0.980001
   42 H15      23 C19     1.852212        0.980148
   43 H16      23 C19     1.852443        0.980271
   44 H17      23 C19     1.852643        0.980376
   49 O3       19 C15     2.352181        1.244720
   47 O1       14 C10     2.365964        1.252014
   51 O5       24 C20     2.366950        1.252536
   48 O2       16 C12     2.370596        1.254465
   52 O6       26 C22     2.391089        1.265310
   50 O4       21 C17     2.401866        1.271013
   60 F8       27 C23     2.457825        1.300625
   55 F3       17 C13     2.466027        1.304965
   54 F2       17 C13     2.473672        1.309011
   53 F1       17 C13     2.481231        1.313011
   61 F9       27 C23     2.484383        1.314679
   57 F5       22 C18     2.494812        1.320198
   56 F4       22 C18     2.505160        1.325673
    8 C4        2 N2      2.507682        1.327008
   12 C8        4 N4    
   59 F7       27 C23     2.512522        1.329569
    8 C4        1 N1      2.515227        1.331001
   12 C8        3 N3    
   58 F6       22 C18     2.518549        1.332759
    7 C3        2 N2      2.521162        1.334141
   11 C7        4 N4    
    5 C1        1 N1      2.540453        1.344350
    9 C5        3 N3    
   21 C17      20 C16     2.566653        1.358214
   26 C22      25 C21     2.575309        1.362795
   16 C12      15 C11     2.592788        1.372044
    6 C2        5 C1      2.594619        1.373013
   10 C6        9 C5    
    7 C3        6 C2      2.601777        1.376801
   11 C7       10 C6    
   20 C16      19 C15     2.655545        1.405254
   15 C11      14 C10     2.661838        1.408584
   25 C21      24 C20     2.662747        1.409065
   12 C8        8 C4      2.809631        1.486793
   24 C20      23 C19     2.820148        1.492358
   14 C10      13 C9      2.839379        1.502535
   19 C15      18 C14     2.849479        1.507879
   27 C23      26 C22     2.872529        1.520077
   22 C18      21 C17     2.880211        1.524142
   17 C13      16 C12     2.882569        1.525390
   35 H8       34 H7      3.021963        1.599154
   40 H13      39 H12     3.022140        1.599248
   36 H9       34 H7      3.022173        1.599265
   44 H17      42 H15     3.023088        1.599749
   40 H13      38 H11     3.023770        1.600110
   36 H9       35 H8      3.023886        1.600172
   39 H12      38 H11     3.024187        1.600331
   44 H17      43 H16     3.024845        1.600679
   43 H16      42 H15     3.026716        1.601669
   30 H3        2 N2      3.737779        1.977947
   33 H6        4 N4    
   28 H1        1 N1      3.752536        1.985757
   31 H4        3 N3    
   41 H14      21 C17     3.764786        1.992239
   45 H18      26 C22     3.779476        2.000012
   37 H10      16 C12     3.795568        2.008528
   28 H1        6 C2      3.801232        2.011525
   31 H4       10 C6    
   30 H3        6 C2      3.807819        2.015011
   33 H6       10 C6    
   41 H14      19 C15     3.845666        2.035039
   29 H2        5 C1      3.850213        2.037445
   32 H5        9 C5      3.851595        2.038176
   44 H17      24 C20     3.855116        2.040039
   42 H15      24 C20     3.855491        2.040238
   43 H16      24 C20     3.857361        2.041228
   37 H10      14 C10     3.857598        2.041353
   32 H5       11 C7      3.858270        2.041708
   29 H2        7 C3      3.858680        2.041925
   45 H18      24 C20   
   34 H7       14 C10     3.870109        2.047973
   36 H9       14 C10     3.870878        2.048380
   35 H8       14 C10     3.873200        2.049609
   39 H12      19 C15     3.878229        2.052270
   40 H13      19 C15     3.879556        2.052973
   38 H11      19 C15     3.881060        2.053768
   55 F3       54 F2      3.938260        2.084037
   55 F3       53 F1      3.943895        2.087019
   61 F9       59 F7      3.947445        2.088898
   60 F8       59 F7      3.980966        2.106636
   58 F6       57 F5      3.997209        2.115232
   54 F2       53 F1      4.002890        2.118238
   57 F5       56 F4      4.025196        2.130042
   58 F6       56 F4      4.037636        2.136625
   61 F9       60 F8      4.044772        2.140401
    8 C4        7 C3      4.281156        2.265490
   12 C8       11 C7    
    8 C4        5 C1      4.287194        2.268686
   12 C8        9 C5    
   41 H14      39 H12     4.313794        2.282761
   50 O4       46 DY1     4.336247        2.294643
   37 H10      35 H8      4.336389        2.294718
   59 F7       45 H18     4.338607        2.295892
   52 O6       46 DY1     4.345217        2.299390
   45 H18      43 H16     4.352208        2.303089
   51 O5       46 DY1     4.377166        2.316297
   56 F4       41 H14     4.379057        2.317297
   60 F8       26 C22     4.389096        2.322610
   49 O3       46 DY1     4.393091        2.324724
   47 O1       46 DY1     4.395257        2.325870
   48 O2       17 C13     4.397350        2.326978
   50 O4       22 C18     4.399056        2.327880
   29 H2       28 H1      4.399667        2.328203
   32 H5       31 H4      4.401309        2.329072
   48 O2       46 DY1     4.404982        2.331016
   53 F1       16 C12     4.408212        2.332725
   33 H6       32 H5      4.409439        2.333375
   30 H3       29 H2      4.410475        2.333923
   49 O3       20 C16     4.416929        2.337338
    7 C3        5 C1      4.425712        2.341986
   11 C7        9 C5    
   47 O1       15 C11     4.428342        2.343377
   51 O5       25 C21     4.428445        2.343432
   55 F3       16 C12     4.434149        2.346451
   51 O5       23 C19     4.434667        2.346725
   61 F9       26 C22     4.440114        2.349607
   52 O6       27 C23     4.442698        2.350975
   58 F6       21 C17     4.446514        2.352994
   54 F2       37 H10     4.454911        2.357437
   49 O3       18 C14     4.454990        2.357479
   57 F5       21 C17     4.464317        2.362415
   47 O1       13 C9      4.465751        2.363174
   48 O2       15 C11     4.470201        2.365528
   52 O6       25 C21     4.475348        2.368252
    2 N2        1 N1      4.477682        2.369487
    4 N4        3 N3    
    6 C2        2 N2      4.482197        2.371876
   10 C6        4 N4    
   50 O4       20 C16     4.486000        2.373889
    6 C2        1 N1      4.498068        2.380275
   10 C6        3 N3    
   59 F7       26 C22     4.507942        2.385500
   56 F4       21 C17     4.511205        2.387227
   54 F2       16 C12     4.522566        2.393239
    8 C4        3 N3      4.532021        2.398242
   12 C8        1 N1    
    8 C4        4 N4      4.544443        2.404816
   12 C8        2 N2    
   21 C17      19 C15     4.601373        2.434942
   26 C22      24 C20     4.603068        2.435838
   16 C12      14 C10     4.613798        2.441517
   27 C23      25 C21     4.637465        2.454041
   22 C18      20 C16     4.683228        2.478258
   17 C13      15 C11     4.701370        2.487858
   15 C11      13 C9      4.734884        2.505593
   25 C21      23 C19     4.736134        2.506254
   20 C16      18 C14     4.739745        2.508165
   39 H12      20 C16     4.783307        2.531217
   43 H16      25 C21     4.786545        2.532931
   35 H8       15 C11     4.789196        2.534333
   46 DY1       2 N2      4.817711        2.549423
   45 H18      27 C23     4.821936        2.551659
   47 O1       36 H9      4.842135        2.562348
   46 DY1       3 N3      4.858856        2.571196
   51 O5       44 H17     4.882443        2.583677
   41 H14      22 C18     4.885019        2.585041
   49 O3       38 H11     4.887161        2.586174
   37 H10      17 C13     4.915181        2.601002
   51 O5       42 H15     4.963078        2.626348
   41 H14      18 C14     4.965478        2.627618
   49 O3       30 H3      4.971405        2.630754
   37 H10      13 C9      4.975397        2.632866
   45 H18      23 C19     4.995879        2.643705
   49 O3       40 H13     5.011787        2.652124
    8 C4        6 C2      5.029992        2.661757
   12 C8       10 C6    
   59 F7       25 C21     5.066926        2.681302
   51 O5       30 H3      5.078467        2.687409
   47 O1       34 H7      5.082859        2.689733
    3 N3        2 N2      5.085504        2.691133
    4 N4        1 N1    
   61 F9       52 O6      5.107058        2.702539
   56 F4       20 C16     5.110752        2.704493
    5 C1        2 N2      5.112896        2.705628
    9 C5        4 N4    
    7 C3        1 N1      5.128379        2.713821
   11 C7        3 N3    
   54 F2       15 C11     5.155806        2.728335
   57 F5       50 O4      5.173077        2.737474
   53 F1       48 O2      5.183564        2.743024
   47 O1       31 H4      5.211135        2.757614
   55 F3       48 O2      5.211146        2.757619
   48 O2       47 O1      5.231602        2.768445
   52 O6       51 O5      5.237924        2.771790
   58 F6       50 O4      5.268853        2.788157
   50 O4       49 O3      5.278770        2.793405
   49 O3        2 N2      5.285158        2.796785
   48 O2        3 N3      5.334355        2.822819
   51 O5       26 C22     5.375668        2.844681
   47 O1       16 C12     5.376466        2.845104
   51 O5       48 O2      5.380736        2.847363
   49 O3       21 C17     5.382548        2.848322
   51 O5       49 O3      5.479702        2.899733
   48 O2        2 N2      5.482291        2.901103
   52 O6       49 O3      5.493151        2.906850
   60 F8       52 O6      5.496735        2.908747
   48 O2       14 C10     5.522660        2.922466
   50 O4        3 N3      5.525365        2.923897
   52 O6       24 C20     5.527792        2.925181
   50 O4       19 C15     5.559507        2.941964
   52 O6       47 O1      5.565015        2.944879
   50 O4       31 H4      5.628162        2.978295
   31 H4       14 C10     5.662692        2.996567
   52 O6       50 O4      5.664059        2.997291
--


            Nuclear Potential Energy           8543.69922275 au

--- Stop Module: gateway at Sat Mar 29 21:59:46 2025 /rc=_RC_ALL_IS_WELL_ ---
*** files: xmldump
    saved to directory /media/korden/5fb66ce1-8053-4a4f-9303-c4fa91c2cea8/home/korden/calc/orca/Artem/XOPLIA

--- Start Module: seward at Sat Mar 29 21:59:46 2025 ---

()()()()()()()()()()()()()()()()()()()()()()()()()()()()()()()()()()()()()()()()()()()()()()()()()()

                                              &SEWARD

                                   only a single process is used
                       available to each process: 32 GB of memory, 1 thread?
                                             pid: 8099
()()()()()()()()()()()()()()()()()()()()()()()()()()()()()()()()()()()()()()()()()()()()()()()()()()

               SEWARD will generate:
                  Multipole Moment integrals up to order  2
                  Kinetic Energy integrals
                  Nuclear Attraction integrals (point charge)
                  One-Electron Hamiltonian integrals
                  Velocity integrals
                  Relativistic Douglas-Kroll integrals
                  Orbital angular momentum around ( 0.6066  6.7992 -2.9952 )
                  Velocity quadrupole around ( 0.6468  7.2533 -3.1286 )
                  Atomic mean-field integrals
                  Cholesky decomposed two-electron repulsion integrals
                   - CD Threshold:   0.10E-07

                   Integrals are discarded if absolute value <: 0.10E-39
                   Integral cutoff threshold is set to       <: 0.10E-39

            Nuclear Potential Energy           8543.69922275 au


      Basis set specifications :
      Symmetry species         a  
      Basis functions          582

      Cholesky vectors        7885


 Sorry, Molden does not know how to handle
 functions with angular momentum larger than g
--- Stop Module: seward at Sun Mar 30 00:02:14 2025 /rc=_RC_ALL_IS_WELL_ ---
*** files: XOPLIA.GssOrb xmldump
    saved to directory /media/korden/5fb66ce1-8053-4a4f-9303-c4fa91c2cea8/home/korden/calc/orca/Artem/XOPLIA
--- Module seward spent 2 hours 2 minutes 27 seconds ---

*** symbolic link created: INPORB -> XOPLIA.GssOrb
--- Start Module: rasscf at Sun Mar 30 00:02:14 2025 ---

()()()()()()()()()()()()()()()()()()()()()()()()()()()()()()()()()()()()()()()()()()()()()()()()()()

                                              &RASSCF

                                   only a single process is used
                       available to each process: 32 GB of memory, 1 thread?
                                             pid: 8217
()()()()()()()()()()()()()()()()()()()()()()()()()()()()()()()()()()()()()()()()()()()()()()()()()()


      Header of the ONEINT file:
      --------------------------
      
      Integrals generated by Gateway/Seward, Sat Mar 29 21:59:46 2025


      OrdInt status: non-squared


      Cartesian coordinates in Angstrom:
      -----------------------------------------------------
      No.  Label        X            Y            Z        
      -----------------------------------------------------
       1   N1         0.64700000   7.09300000   1.57500000
       2   N2         1.04500000   5.11600000   0.33100000
       3   N3        -0.64700000   5.98000000  -1.57500000
       4   N4        -1.04500000   7.95700000  -0.33100000
       5   C1         1.50800000   6.65300000   2.50900000
       6   C2         2.17500000   5.45900000   2.38800000
       7   C3         1.91100000   4.71200000   1.26200000
       8   C4         0.46600000   6.29400000   0.52600000
       9   C5        -1.50800000   6.42000000  -2.50900000
      10   C6        -2.17500000   7.61400000  -2.38800000
      11   C7        -1.91100000   8.36100000  -1.26200000
      12   C8        -0.46600000   6.77900000  -0.52600000
      13   C9        -3.75200000   2.84900000  -3.75800000
      14   C10       -2.85300000   3.22100000  -2.61300000
      15   C11       -3.43700000   3.60800000  -1.39100000
      16   C12       -2.70100000   3.84700000  -0.25800000
      17   C13       -3.42600000   4.37700000   0.97500000
      18   C14        4.96300000   3.51800000  -1.83600000
      19   C15        3.55700000   3.81000000  -2.29600000
      20   C16        3.35000000   4.21700000  -3.62500000
      21   C17        2.13900000   4.58600000  -4.11700000
      22   C18        2.06400000   5.10800000  -5.54700000
      23   C19        1.70200000   0.30700000   1.37400000
      24   C20        1.48400000   0.95200000   0.04600000
      25   C21        2.02400000   0.35600000  -1.11100000
      26   C22        1.71600000   0.77100000  -2.37200000
      27   C23        2.38000000   0.02200000  -3.51600000
      28   H1         1.65900000   7.18600000   3.28100000
      29   H2         2.78800000   5.16300000   3.05000000
      30   H3         2.36100000   3.88400000   1.14500000
      31   H4        -1.65900000   5.88700000  -3.28100000
      32   H5        -2.78800000   7.91100000  -3.05000000
      33   H6        -2.36100000   9.18900000  -1.14500000
      34   H7        -3.69800000   1.88400000  -3.91400000
      35   H8        -4.67600000   3.09300000  -3.54100000
      36   H9        -3.46800000   3.32700000  -4.56400000
      37   H10       -4.38100000   3.70800000  -1.35000000
      38   H11        4.99900000   2.62000000  -1.44600000
      39   H12        5.57200000   3.56800000  -2.60100000
      40   H13        5.22900000   4.17800000  -1.16300000
      41   H14        4.09800000   4.23600000  -4.21100000
      42   H15        0.84100000   0.01600000   1.74100000
      43   H16        2.29300000  -0.46800000   1.26900000
      44   H17        2.11500000   0.95200000   1.98600000
      45   H18        2.63100000  -0.36900000  -1.00700000
      46   DY1        0.32100000   3.59800000  -1.58500000
      47   O1        -1.61600000   3.17200000  -2.80000000
      48   O2        -1.46400000   3.72200000  -0.09100000
      49   O3         2.64100000   3.68200000  -1.46300000
      50   O4         1.00600000   4.58300000  -3.54100000
      51   O5         0.80300000   2.00300000   0.02400000
      52   O6         0.93300000   1.69900000  -2.72800000
      53   F1        -2.94700000   5.55100000   1.31600000
      54   F2        -4.72300000   4.49700000   0.84500000
      55   F3        -3.24400000   3.60600000   2.01200000
      56   F4         3.21900000   5.04900000  -6.19500000
      57   F5         1.17600000   4.45100000  -6.27000000
      58   F6         1.67300000   6.38200000  -5.56400000
      59   F7         2.91100000  -1.14100000  -3.15100000
      60   F8         3.34900000   0.72600000  -4.02300000
      61   F9         1.51800000  -0.29400000  -4.45700000
      -----------------------------------------------------
      Nuclear repulsion energy = 8543.69922275

++    Wave function specifications:
      -----------------------------

      Number of closed shell electrons         370
      Number of electrons in active shells       9
      Max number of holes in RAS1 space          0
      Max nr of electrons in RAS3 space          0
      Number of inactive orbitals              185
      Number of active orbitals                  7
      Number of secondary orbitals             390
      Spin quantum number                      2.5
      State symmetry                             1
--

++    Orbital specifications:
      -----------------------

      Symmetry species                           1
                                                 a
      Frozen orbitals                            0
      Inactive orbitals                        185
      Active orbitals                            7
      RAS1 orbitals                              0
      RAS2 orbitals                              7
      RAS3 orbitals                              0
      Secondary orbitals                       390
      Deleted orbitals                           0
      Number of basis functions                582
--

++    CI expansion specifications:
      ----------------------------

      Number of CSFs                            21
      Number of determinants                    21
      Number of root(s) required                21
      Root chosen for geometry opt.             21
      CI roots used                              1     2     3     4     5     6     7     8     9    10
                                                11    12    13    14    15    16    17    18    19    20
                                                21
      weights                                0.048 0.048 0.048 0.048 0.048 0.048 0.048 0.048 0.048 0.048
                                             0.048 0.048 0.048 0.048 0.048 0.048 0.048 0.048 0.048 0.048
                                             0.048
      highest root included in the CI           21
      max. size of the explicit Hamiltonian     21
--

++    Optimization specifications:
      ----------------------------

      RASSCF algorithm: LK Cholesky
      Maximum number of macro iterations       200
      Maximum number of SX iterations          100
      Threshold for RASSCF energy            0.100E-07
      Threshold for max MO rotation          0.100E+00
      Threshold for max BLB element          0.100E-03
      Level shift parameter                  0.500E+00
      Make Quasi-Newton update
--

      Orbitals from runfile: guessorb orbitals
      The MO-coefficients are taken from guessorb on runfile

      Total molecular charge    0.00

      ************************************************************************************************************************
      *                                                                                                                      *
      *                                            Wave function control section                                             *
      *                                                                                                                      *
      ************************************************************************************************************************


                                         RASSCF iterations: Energy and convergence statistics
                                         ----------------------------------------------------

      Iter CI   SX   CI       RASSCF       Energy    max ROT     max BLB   max BLB  Level Ln srch  Step   QN   Walltime
          iter iter root      energy       change     param      element    value   shift minimum  type update hh:mm:ss
 Nr of preliminary CI iterations:   1
      Total energies have been shifted. Add               -14000.00 au
        1   1   11    0  -576.35545851    0.00E+00  -0.10E+00* 180 572 1  0.16E+01*  4.07   0.00    SX    NO    0:17:25
        2   1   12    0  -581.64656894   -0.53E+01* -0.15E+00*  36 581 1  0.52E+00*  2.51   0.00    SX    NO    0:07:33
        3   1   11    0  -584.69375344   -0.30E+01* -0.20E+00*  65 567 1 -0.32E+00*  1.69   0.00    SX    NO    0:08:08
        4   1   12    0  -586.73969657   -0.20E+01*  0.19E+00*  66 579 1  0.25E+00*  0.91   0.00    SX    NO    0:08:36
        5   1   13    0  -588.12369947   -0.14E+01*  0.12E+00* 185 189 1 -0.17E+00*  0.51   2.21    QN   YES    0:08:46
        6   1   13    0  -588.77499692   -0.65E+00* -0.12E+00* 181 190 1  0.13E+00*  0.47   2.50    QN   YES    0:08:56
        7   1   13    0  -589.31400765   -0.54E+00*  0.13E+00* 180 191 1 -0.12E+00*  0.47   2.50    QN   YES    0:09:01
        8   1   13    0  -589.70345511   -0.39E+00*  0.11E+00* 180 191 1 -0.79E-01*  0.48   2.50    QN   YES    0:09:01
        9   1   14    0  -589.94181693   -0.24E+00*  0.12E+00*  65 567 1  0.91E-01*  0.43   1.90    QN   YES    0:09:08
       10   1   13    0  -590.09058333   -0.15E+00*  0.19E+00* 182 187 1 -0.10E+00*  0.43   2.50    QN   YES    0:09:02
       11   1   13    0  -590.25555345   -0.16E+00*  0.17E+00* 182 187 1 -0.10E+00*  0.42   1.78    QN   YES    0:08:54
       12   1   13    0  -590.33862300   -0.83E-01* -0.39E-01  181 190 1 -0.55E-01*  0.36   1.05    QN   YES    0:08:50
       13   1   13    0  -590.37680692   -0.38E-01* -0.48E-01   65 567 1 -0.39E-01*  0.38   2.01    QN   YES    0:09:05
       14   1   13    0  -590.40206335   -0.25E-01*  0.11E-01   66 263 1  0.10E-01*  0.38   1.26    QN   YES    0:09:10
       15   1   12    0  -590.40609482   -0.40E-02* -0.51E-02   63 569 1  0.18E-01*  0.41   1.14    QN   YES    0:09:43
       16   1   11    0  -590.40665626   -0.56E-03*  0.30E-02   63 569 1 -0.49E-02*  0.40   0.96    QN   YES    0:09:29
       17   1   10    0  -590.40677456   -0.12E-03* -0.92E-03   66 263 1 -0.69E-03*  0.41   1.07    QN   YES    0:09:58
       18   1    9    0  -590.40679342   -0.19E-04* -0.25E-03   36 581 1  0.40E-03*  0.41   1.20    QN   YES    0:10:35
       19   1    8    0  -590.40679715   -0.37E-05*  0.15E-03  177 198 1 -0.15E-03*  0.41   1.23    QN   YES    0:10:44
       20   1    8    0  -590.40679794   -0.79E-06*  0.13E-03  177 198 1 -0.94E-04   0.41   1.43    QN   YES    0:10:58
       21   1    7    0  -590.40679823   -0.28E-06*  0.71E-04  177 198 1 -0.47E-04   0.41   1.33    QN   YES    0:11:04
       22   1    7    0  -590.40679830   -0.79E-07*  0.35E-04  177 198 1 -0.20E-04   0.41   1.36    QN   YES    0:11:13
       23   1    6    0  -590.40679832   -0.21E-07*  0.12E-04  159 193 1  0.11E-04   0.41   1.34    QN   YES    0:11:23
       24   1    6    0  -590.40679833   -0.58E-08  -0.59E-05  178 200 1 -0.50E-05   0.41   1.17    QN   YES    0:11:29
      Convergence after 24 iterations
       25   1    6    0  -590.40679833   -0.25E-08  -0.59E-05  177 198 1 -0.17E-05   0.41   1.17    QN   YES    0:11:36

      ************************************************************************************************************************
                                                      Wave function printout:
                       occupation of active orbitals, and spin coupling of open shells (u,d: Spin up or down)
      ************************************************************************************************************************

      Note: transformation to natural orbitals
      has been made, which may change the order of the CSFs.

      printout of CI-coefficients larger than  0.05 for root  1
      energy=  -14590.442040
      conf/sym  1111111     Coeff  Weight
             2  2u2uuuu   0.14857 0.02207
             3  u22uuuu  -0.25678 0.06594
             4  2uu2uuu   0.30728 0.09442
             5  2uuu2uu  -0.12385 0.01534
             6  2uuuu2u   0.19682 0.03874
             9  u2uu2uu   0.16001 0.02560
            10  u2uuu2u  -0.53953 0.29110
            12  uu22uuu  -0.42111 0.17734
            13  uu2u2uu   0.11652 0.01358
            14  uu2uu2u   0.20322 0.04130
            15  uu2uuu2  -0.09277 0.00861
            17  uuu2u2u  -0.20598 0.04243
            19  uuu2uu2   0.38861 0.15102
            20  uuuu2u2  -0.09202 0.00847
            21  uuuuu22  -0.05568 0.00310

      printout of CI-coefficients larger than  0.05 for root  2
      energy=  -14590.442025
      conf/sym  1111111     Coeff  Weight
             1  22uuuuu  -0.35515 0.12613
             2  2u2uuuu   0.15203 0.02311
             3  u22uuuu  -0.36590 0.13389
             5  2uuu2uu  -0.08351 0.00697
             6  2uuuu2u  -0.17493 0.03060
             7  2uuuuu2   0.13992 0.01958
             8  u2u2uuu  -0.22873 0.05232
            10  u2uuu2u   0.18465 0.03409
            11  u2uuuu2  -0.28385 0.08057
            12  uu22uuu   0.33849 0.11457
            13  uu2u2uu  -0.08697 0.00756
            14  uu2uu2u   0.12819 0.01643
            16  uuu22uu   0.07204 0.00519
            17  uuu2u2u  -0.56775 0.32234
            18  uuuu22u   0.13439 0.01806
            21  uuuuu22  -0.05829 0.00340

      printout of CI-coefficients larger than  0.05 for root  3
      energy=  -14590.441429
      conf/sym  1111111     Coeff  Weight
             1  22uuuuu   0.11616 0.01349
             2  2u2uuuu  -0.08371 0.00701
             3  u22uuuu  -0.25165 0.06333
             4  2uu2uuu  -0.53726 0.28865
             6  2uuuu2u   0.17975 0.03231
             7  2uuuuu2  -0.29725 0.08836
             8  u2u2uuu  -0.08643 0.00747
             9  u2uu2uu   0.54403 0.29597
            10  u2uuu2u   0.25753 0.06632
            11  u2uuuu2   0.10172 0.01035
            12  uu22uuu  -0.29872 0.08924
            14  uu2uu2u   0.05813 0.00338
            17  uuu2u2u  -0.09959 0.00992
            18  uuuu22u   0.09773 0.00955
            19  uuu2uu2  -0.06445 0.00415
            21  uuuuu22  -0.08000 0.00640

      printout of CI-coefficients larger than  0.05 for root  4
      energy=  -14590.441219
      conf/sym  1111111     Coeff  Weight
             1  22uuuuu  -0.24879 0.06190
             2  2u2uuuu   0.08218 0.00675
             3  u22uuuu   0.26977 0.07278
             4  2uu2uuu   0.17618 0.03104
             5  2uuu2uu  -0.23171 0.05369
             7  2uuuuu2  -0.39451 0.15564
             8  u2u2uuu  -0.34397 0.11832
             9  u2uu2uu  -0.11366 0.01292
            10  u2uuu2u   0.31637 0.10009
            11  u2uuuu2   0.11605 0.01347
            12  uu22uuu  -0.16323 0.02664
            14  uu2uu2u   0.24056 0.05787
            15  uu2uuu2  -0.14043 0.01972
            16  uuu22uu  -0.22238 0.04945
            17  uuu2u2u  -0.05256 0.00276
            18  uuuu22u  -0.18446 0.03403
            19  uuu2uu2   0.15724 0.02472
            20  uuuu2u2   0.37659 0.14182
            21  uuuuu22   0.12641 0.01598

      printout of CI-coefficients larger than  0.05 for root  5
      energy=  -14590.441123
      conf/sym  1111111     Coeff  Weight
             1  22uuuuu   0.28225 0.07967
             2  2u2uuuu   0.36064 0.13006
             3  u22uuuu  -0.18928 0.03583
             4  2uu2uuu   0.09689 0.00939
             6  2uuuu2u   0.30737 0.09448
             8  u2u2uuu   0.05816 0.00338
             9  u2uu2uu  -0.07916 0.00627
            10  u2uuu2u   0.29676 0.08807
            11  u2uuuu2   0.37826 0.14308
            12  uu22uuu   0.37255 0.13880
            14  uu2uu2u   0.15742 0.02478
            16  uuu22uu   0.18849 0.03553
            17  uuu2u2u   0.09834 0.00967
            18  uuuu22u  -0.18267 0.03337
            19  uuu2uu2   0.25117 0.06309
            20  uuuu2u2  -0.05384 0.00290
            21  uuuuu22  -0.31456 0.09895

      printout of CI-coefficients larger than  0.05 for root  6
      energy=  -14590.440636
      conf/sym  1111111     Coeff  Weight
             1  22uuuuu   0.06937 0.00481
             2  2u2uuuu  -0.33040 0.10917
             3  u22uuuu  -0.28524 0.08136
             4  2uu2uuu   0.24517 0.06011
             5  2uuu2uu   0.12966 0.01681
             6  2uuuu2u   0.33634 0.11313
             8  u2u2uuu  -0.05448 0.00297
             9  u2uu2uu  -0.22096 0.04882
            10  u2uuu2u   0.05176 0.00268
            12  uu22uuu  -0.10638 0.01132
            13  uu2u2uu  -0.39437 0.15553
            14  uu2uu2u   0.17528 0.03072
            16  uuu22uu   0.42184 0.17795
            18  uuuu22u   0.08329 0.00694
            19  uuu2uu2  -0.21094 0.04450
            20  uuuu2u2   0.18905 0.03574
            21  uuuuu22   0.30836 0.09508

      printout of CI-coefficients larger than  0.05 for root  7
      energy=  -14590.440443
      conf/sym  1111111     Coeff  Weight
             1  22uuuuu  -0.11323 0.01282
             2  2u2uuuu  -0.05781 0.00334
             4  2uu2uuu  -0.07944 0.00631
             5  2uuu2uu  -0.63981 0.40935
             6  2uuuu2u   0.26822 0.07194
             7  2uuuuu2   0.15774 0.02488
             8  u2u2uuu  -0.20800 0.04326
            10  u2uuu2u  -0.09216 0.00849
            11  u2uuuu2   0.15293 0.02339
            12  uu22uuu   0.09739 0.00948
            13  uu2u2uu  -0.30853 0.09519
            14  uu2uu2u  -0.44624 0.19913
            15  uu2uuu2  -0.10694 0.01144
            16  uuu22uu  -0.10362 0.01074
            17  uuu2u2u   0.08346 0.00697
            18  uuuu22u  -0.05522 0.00305
            20  uuuu2u2  -0.21528 0.04634
            21  uuuuu22   0.10862 0.01180

      printout of CI-coefficients larger than  0.05 for root  8
      energy=  -14590.440146
      conf/sym  1111111     Coeff  Weight
             1  22uuuuu  -0.10491 0.01101
             2  2u2uuuu   0.39181 0.15351
             4  2uu2uuu  -0.12395 0.01536
             5  2uuu2uu   0.05247 0.00275
             6  2uuuu2u   0.06584 0.00433
             7  2uuuuu2  -0.18121 0.03284
             8  u2u2uuu   0.21804 0.04754
             9  u2uu2uu  -0.10652 0.01135
            10  u2uuu2u   0.19858 0.03943
            11  u2uuuu2  -0.42453 0.18023
            12  uu22uuu  -0.08885 0.00789
            13  uu2u2uu  -0.22814 0.05205
            15  uu2uuu2  -0.15448 0.02386
            16  uuu22uu   0.07557 0.00571
            17  uuu2u2u   0.27333 0.07471
            18  uuuu22u   0.25756 0.06634
            19  uuu2uu2   0.35334 0.12485
            20  uuuu2u2  -0.25254 0.06378
            21  uuuuu22   0.28499 0.08122

      printout of CI-coefficients larger than  0.05 for root  9
      energy=  -14590.440057
      conf/sym  1111111     Coeff  Weight
             1  22uuuuu  -0.05734 0.00329
             2  2u2uuuu  -0.14990 0.02247
             3  u22uuuu   0.40031 0.16025
             4  2uu2uuu  -0.08993 0.00809
             5  2uuu2uu   0.10533 0.01109
             6  2uuuu2u   0.27466 0.07544
             7  2uuuuu2   0.41864 0.17526
             8  u2u2uuu   0.06641 0.00441
             9  u2uu2uu   0.29440 0.08667
            12  uu22uuu   0.16032 0.02570
            13  uu2u2uu  -0.30424 0.09256
            14  uu2uu2u   0.19511 0.03807
            15  uu2uuu2  -0.09764 0.00953
            16  uuu22uu  -0.12431 0.01545
            17  uuu2u2u  -0.05743 0.00330
            18  uuuu22u   0.27169 0.07382
            19  uuu2uu2   0.27821 0.07740
            20  uuuu2u2   0.31550 0.09954
            21  uuuuu22  -0.12604 0.01588

      printout of CI-coefficients larger than  0.05 for root 10
      energy=  -14590.439505
      conf/sym  1111111     Coeff  Weight
             1  22uuuuu   0.11041 0.01219
             2  2u2uuuu  -0.28184 0.07944
             4  2uu2uuu  -0.12630 0.01595
             7  2uuuuu2  -0.23952 0.05737
             8  u2u2uuu  -0.27113 0.07351
             9  u2uu2uu  -0.33340 0.11116
            10  u2uuu2u  -0.12605 0.01589
            11  u2uuuu2   0.08507 0.00724
            12  uu22uuu   0.15647 0.02448
            13  uu2u2uu   0.08157 0.00665
            14  uu2uu2u   0.11568 0.01338
            15  uu2uuu2   0.44135 0.19479
            16  uuu22uu  -0.14992 0.02248
            17  uuu2u2u   0.06255 0.00391
            18  uuuu22u   0.47594 0.22652
            19  uuu2uu2   0.33042 0.10918
            20  uuuu2u2  -0.12150 0.01476
            21  uuuuu22  -0.07788 0.00607

      printout of CI-coefficients larger than  0.05 for root 11
      energy=  -14590.439496
      conf/sym  1111111     Coeff  Weight
             1  22uuuuu  -0.18221 0.03320
             2  2u2uuuu  -0.08535 0.00728
             3  u22uuuu   0.14195 0.02015
             4  2uu2uuu  -0.23508 0.05526
             5  2uuu2uu  -0.11480 0.01318
             6  2uuuu2u  -0.21092 0.04449
             7  2uuuuu2   0.19960 0.03984
             9  u2uu2uu   0.07473 0.00559
            11  u2uuuu2   0.35137 0.12346
            12  uu22uuu   0.10111 0.01022
            13  uu2u2uu   0.30214 0.09129
            14  uu2uu2u   0.27861 0.07762
            15  uu2uuu2  -0.13575 0.01843
            16  uuu22uu   0.43926 0.19295
            19  uuu2uu2   0.15653 0.02450
            20  uuuu2u2  -0.16354 0.02675
            21  uuuuu22   0.45748 0.20929

      printout of CI-coefficients larger than  0.05 for root 12
      energy=  -14590.407436
      conf/sym  1111111     Coeff  Weight
             1  22uuuuu   0.09959 0.00992
             2  2u2uuuu   0.06794 0.00462
             3  u22uuuu   0.10563 0.01116
             4  2uu2uuu  -0.32899 0.10823
             5  2uuu2uu  -0.29964 0.08978
             6  2uuuu2u  -0.06753 0.00456
             7  2uuuuu2  -0.34550 0.11937
             8  u2u2uuu   0.31531 0.09942
             9  u2uu2uu  -0.19727 0.03892
            10  u2uuu2u  -0.40302 0.16243
            11  u2uuuu2  -0.06206 0.00385
            12  uu22uuu   0.21866 0.04781
            13  uu2u2uu  -0.22815 0.05205
            14  uu2uu2u   0.33393 0.11151
            15  uu2uuu2  -0.18363 0.03372
            16  uuu22uu   0.07036 0.00495
            17  uuu2u2u  -0.15015 0.02255
            18  uuuu22u  -0.07022 0.00493
            19  uuu2uu2  -0.20130 0.04052
            20  uuuu2u2   0.10641 0.01132
            21  uuuuu22  -0.13554 0.01837

      printout of CI-coefficients larger than  0.05 for root 13
      energy=  -14590.407358
      conf/sym  1111111     Coeff  Weight
             2  2u2uuuu   0.26972 0.07275
             3  u22uuuu   0.12800 0.01638
             4  2uu2uuu   0.11109 0.01234
             5  2uuu2uu   0.20244 0.04098
             6  2uuuu2u   0.25090 0.06295
             7  2uuuuu2  -0.33366 0.11133
             8  u2u2uuu  -0.29488 0.08696
             9  u2uu2uu   0.33259 0.11062
            10  u2uuu2u  -0.33388 0.11148
            11  u2uuuu2  -0.06259 0.00392
            12  uu22uuu   0.41113 0.16903
            13  uu2u2uu   0.15450 0.02387
            14  uu2uu2u  -0.22194 0.04926
            16  uuu22uu   0.12371 0.01531
            18  uuuu22u   0.10862 0.01180
            19  uuu2uu2  -0.14227 0.02024
            20  uuuu2u2   0.14217 0.02021
            21  uuuuu22   0.24163 0.05839

      printout of CI-coefficients larger than  0.05 for root 14
      energy=  -14590.406788
      conf/sym  1111111     Coeff  Weight
             1  22uuuuu   0.16646 0.02771
             2  2u2uuuu   0.06524 0.00426
             3  u22uuuu  -0.06194 0.00384
             4  2uu2uuu   0.36545 0.13356
             5  2uuu2uu  -0.25520 0.06513
             6  2uuuu2u  -0.27022 0.07302
             7  2uuuuu2  -0.06331 0.00401
             8  u2u2uuu   0.30245 0.09148
             9  u2uu2uu   0.39367 0.15498
            10  u2uuu2u   0.08418 0.00709
            11  u2uuuu2   0.15476 0.02395
            12  uu22uuu   0.12338 0.01522
            13  uu2u2uu  -0.23235 0.05399
            14  uu2uu2u   0.20391 0.04158
            15  uu2uuu2   0.36494 0.13318
            16  uuu22uu  -0.22688 0.05148
            17  uuu2u2u   0.07440 0.00554
            18  uuuu22u   0.10618 0.01127
            19  uuu2uu2  -0.07064 0.00499
            21  uuuuu22   0.30309 0.09186

      printout of CI-coefficients larger than  0.05 for root 15
      energy=  -14590.406595
      conf/sym  1111111     Coeff  Weight
             1  22uuuuu   0.50356 0.25357
             2  2u2uuuu  -0.19552 0.03823
             3  u22uuuu   0.05795 0.00336
             5  2uuu2uu   0.15603 0.02435
             6  2uuuu2u   0.07197 0.00518
             8  u2u2uuu  -0.08843 0.00782
             9  u2uu2uu  -0.05182 0.00268
            10  u2uuu2u   0.08210 0.00674
            11  u2uuuu2  -0.09575 0.00917
            12  uu22uuu   0.13706 0.01879
            14  uu2uu2u   0.06239 0.00389
            15  uu2uuu2  -0.33100 0.10956
            16  uuu22uu  -0.34739 0.12068
            17  uuu2u2u  -0.37294 0.13908
            18  uuuu22u  -0.17012 0.02894
            19  uuu2uu2   0.09286 0.00862
            20  uuuu2u2  -0.31074 0.09656
            21  uuuuu22   0.34947 0.12213

      printout of CI-coefficients larger than  0.05 for root 16
      energy=  -14590.406532
      conf/sym  1111111     Coeff  Weight
             1  22uuuuu  -0.12356 0.01527
             2  2u2uuuu  -0.15180 0.02304
             3  u22uuuu   0.22929 0.05257
             4  2uu2uuu   0.13299 0.01769
             5  2uuu2uu   0.23904 0.05714
             6  2uuuu2u  -0.23816 0.05672
             7  2uuuuu2  -0.31979 0.10227
             8  u2u2uuu   0.08143 0.00663
             9  u2uu2uu   0.08232 0.00678
            11  u2uuuu2   0.28024 0.07854
            13  uu2u2uu  -0.38530 0.14846
            14  uu2uu2u  -0.32437 0.10522
            16  uuu22uu   0.27091 0.07339
            17  uuu2u2u  -0.30945 0.09576
            18  uuuu22u  -0.09727 0.00946
            19  uuu2uu2   0.28976 0.08396
            20  uuuu2u2  -0.20625 0.04254
            21  uuuuu22  -0.15444 0.02385

      printout of CI-coefficients larger than  0.05 for root 17
      energy=  -14590.406436
      conf/sym  1111111     Coeff  Weight
             1  22uuuuu   0.12669 0.01605
             2  2u2uuuu   0.41332 0.17083
             3  u22uuuu   0.20486 0.04197
             4  2uu2uuu   0.05145 0.00265
             5  2uuu2uu   0.06021 0.00362
             7  2uuuuu2   0.11379 0.01295
             8  u2u2uuu  -0.13077 0.01710
             9  u2uu2uu  -0.17375 0.03019
            11  u2uuuu2   0.36374 0.13231
            12  uu22uuu  -0.27184 0.07390
            13  uu2u2uu  -0.09108 0.00830
            15  uu2uuu2  -0.14029 0.01968
            17  uuu2u2u  -0.21208 0.04498
            18  uuuu22u   0.51710 0.26739
            19  uuu2uu2  -0.36613 0.13405
            20  uuuu2u2  -0.13702 0.01877

      printout of CI-coefficients larger than  0.05 for root 18
      energy=  -14590.406257
      conf/sym  1111111     Coeff  Weight
             2  2u2uuuu  -0.14457 0.02090
             3  u22uuuu   0.43477 0.18902
             4  2uu2uuu   0.22557 0.05088
             5  2uuu2uu  -0.24095 0.05806
             6  2uuuu2u   0.35259 0.12432
             7  2uuuuu2  -0.07702 0.00593
             8  u2u2uuu   0.09838 0.00968
             9  u2uu2uu   0.06905 0.00477
            10  u2uuu2u   0.18703 0.03498
            11  u2uuuu2  -0.27126 0.07358
            13  uu2u2uu   0.23223 0.05393
            14  uu2uu2u   0.14864 0.02209
            15  uu2uuu2   0.20394 0.04159
            16  uuu22uu   0.24397 0.05952
            17  uuu2u2u  -0.14035 0.01970
            19  uuu2uu2  -0.19806 0.03923
            20  uuuu2u2  -0.39786 0.15829
            21  uuuuu22  -0.17249 0.02975

      printout of CI-coefficients larger than  0.05 for root 19
      energy=  -14590.283511
      conf/sym  1111111     Coeff  Weight
             1  22uuuuu   0.35567 0.12650
             2  2u2uuuu  -0.09540 0.00910
             4  2uu2uuu   0.18152 0.03295
             5  2uuu2uu  -0.17488 0.03058
             6  2uuuu2u  -0.40080 0.16064
             8  u2u2uuu  -0.42361 0.17944
             9  u2uu2uu   0.18642 0.03475
            11  u2uuuu2  -0.24952 0.06226
            13  uu2u2uu  -0.11612 0.01348
            14  uu2uu2u   0.09438 0.00891
            15  uu2uuu2  -0.30851 0.09518
            16  uuu22uu   0.25252 0.06377
            17  uuu2u2u   0.29804 0.08883
            18  uuuu22u   0.10496 0.01102
            21  uuuuu22  -0.27977 0.07827

      printout of CI-coefficients larger than  0.05 for root 20
      energy=  -14590.282161
      conf/sym  1111111     Coeff  Weight
             1  22uuuuu  -0.05929 0.00352
             2  2u2uuuu  -0.26562 0.07055
             3  u22uuuu  -0.16606 0.02758
             4  2uu2uuu   0.21879 0.04787
             5  2uuu2uu  -0.16107 0.02594
             7  2uuuuu2  -0.18441 0.03401
             8  u2u2uuu   0.37589 0.14129
            10  u2uuu2u   0.14199 0.02016
            11  u2uuuu2   0.07953 0.00632
            12  uu22uuu   0.13071 0.01709
            13  uu2u2uu   0.34310 0.11772
            14  uu2uu2u  -0.24014 0.05767
            15  uu2uuu2  -0.45537 0.20736
            17  uuu2u2u  -0.05148 0.00265
            18  uuuu22u   0.42706 0.18238
            20  uuuu2u2   0.17478 0.03055
            21  uuuuu22  -0.06830 0.00467

      printout of CI-coefficients larger than  0.05 for root 21
      energy=  -14590.281574
      conf/sym  1111111     Coeff  Weight
             1  22uuuuu  -0.43119 0.18592
             2  2u2uuuu  -0.14665 0.02150
             3  u22uuuu  -0.11790 0.01390
             4  2uu2uuu   0.09288 0.00863
             5  2uuu2uu   0.26804 0.07184
             6  2uuuu2u   0.07324 0.00536
             7  2uuuuu2  -0.11747 0.01380
             8  u2u2uuu  -0.07132 0.00509
             9  u2uu2uu   0.10084 0.01017
            10  u2uuu2u  -0.08460 0.00716
            11  u2uuuu2   0.15195 0.02309
            12  uu22uuu   0.14330 0.02053
            13  uu2u2uu  -0.10962 0.01202
            14  uu2uu2u   0.31041 0.09635
            15  uu2uuu2  -0.26332 0.06934
            16  uuu22uu  -0.30144 0.09087
            17  uuu2u2u   0.31903 0.10178
            19  uuu2uu2  -0.20584 0.04237
            20  uuuu2u2  -0.41930 0.17581
            21  uuuuu22  -0.15552 0.02419

      Natural orbitals and occupation numbers for root  1
      sym 1:   1.002080   1.459090   1.538830   1.538830   1.002080   1.459090   1.000000

      Natural orbitals and occupation numbers for root  2
      sym 1:   1.004915   1.562919   1.432167   1.562919   1.004915   1.432167   1.000000

      Natural orbitals and occupation numbers for root  3
      sym 1:   1.627115   1.627115   1.026557   1.346328   1.346328   1.000000   1.026557

      Natural orbitals and occupation numbers for root  4
      sym 1:   1.625320   1.625320   1.000000   1.331624   1.043056   1.043056   1.331624

      Natural orbitals and occupation numbers for root  5
      sym 1:   1.637933   1.637933   1.000000   1.044867   1.044867   1.317199   1.317199

      Natural orbitals and occupation numbers for root  6
      sym 1:   1.335156   1.045338   1.619506   1.000000   1.619506   1.335156   1.045338

      Natural orbitals and occupation numbers for root  7
      sym 1:   1.638011   1.087073   1.274916   1.087073   1.638011   1.274916   1.000000

      Natural orbitals and occupation numbers for root  8
      sym 1:   1.050337   1.611180   1.338483   1.338483   1.000000   1.050337   1.611180

      Natural orbitals and occupation numbers for root  9
      sym 1:   1.353373   1.000000   1.600561   1.046066   1.600561   1.046066   1.353373

      Natural orbitals and occupation numbers for root 10
      sym 1:   1.029055   1.000000   1.576774   1.029055   1.394171   1.576774   1.394171

      Natural orbitals and occupation numbers for root 11
      sym 1:   1.596126   1.000000   1.044409   1.596126   1.359464   1.044409   1.359464

      Natural orbitals and occupation numbers for root 12
      sym 1:   1.353725   1.319116   1.327159   1.327159   1.000000   1.319116   1.353725

      Natural orbitals and occupation numbers for root 13
      sym 1:   1.365524   1.324153   1.365524   1.310322   1.000000   1.310322   1.324153

      Natural orbitals and occupation numbers for root 14
      sym 1:   1.313422   1.355840   1.000000   1.330739   1.330739   1.355840   1.313422

      Natural orbitals and occupation numbers for root 15
      sym 1:   1.318027   1.318027   1.000000   1.324354   1.357618   1.324354   1.357618

      Natural orbitals and occupation numbers for root 16
      sym 1:   1.311239   1.000000   1.311239   1.329786   1.358975   1.358975   1.329786

      Natural orbitals and occupation numbers for root 17
      sym 1:   1.000000   1.317272   1.351505   1.351505   1.317272   1.331223   1.331223

      Natural orbitals and occupation numbers for root 18
      sym 1:   1.334002   1.308420   1.357578   1.000000   1.334002   1.308420   1.357578

      Natural orbitals and occupation numbers for root 19
      sym 1:   1.290703   1.635741   1.073556   1.635741   1.000000   1.290703   1.073556

      Natural orbitals and occupation numbers for root 20
      sym 1:   1.070500   1.000000   1.645638   1.070500   1.645638   1.283862   1.283862

      Natural orbitals and occupation numbers for root 21
      sym 1:   1.649532   1.649532   1.280869   1.000000   1.069599   1.280869   1.069599

      ************************************************************************************************************************
      *                                                                                                                      *
      *                                                    Final results                                                     *
      *                                                                                                                      *
      ************************************************************************************************************************


++    Wave function specifications:
      -----------------------------

      Number of closed shell electrons         370
      Number of electrons in active shells       9
      Max number of holes in RAS1 space          0
      Max nr of electrons in RAS3 space          0
      Number of inactive orbitals              185
      Number of active orbitals                  7
      Number of secondary orbitals             390
      Spin quantum number                      2.5
      State symmetry                             1
--

++    Orbital specifications:
      -----------------------

      Symmetry species                           1
                                                 a
      Frozen orbitals                            0
      Inactive orbitals                        185
      Active orbitals                            7
      RAS1 orbitals                              0
      RAS2 orbitals                              7
      RAS3 orbitals                              0
      Secondary orbitals                       390
      Deleted orbitals                           0
      Number of basis functions                582
--

++    CI expansion specifications:
      ----------------------------

      Number of CSFs                            21
      Number of determinants                    21
      Number of root(s) required                21
      CI roots used                              1     2     3     4     5     6     7     8     9    10
                                                11    12    13    14    15    16    17    18    19    20
                                                21
      weights                                0.048 0.048 0.048 0.048 0.048 0.048 0.048 0.048 0.048 0.048
                                             0.048 0.048 0.048 0.048 0.048 0.048 0.048 0.048 0.048 0.048
                                             0.048
      highest root included in the CI           21
      Root passed to geometry opt.              21
--

++    Final optimization conditions:
      ------------------------------

      Average CI energy                          -14590.40679833
      RASSCF energy for state 21                 -14590.28157385
      Super-CI energy                                -0.00000000
      RASSCF energy change                           -0.00000000
      Max change in MO coefficients               0.579E-05
      Max non-diagonal density matrix element    -0.585E-05
      Maximum BLB matrix element                 -0.167E-05
      (orbital pair 177, 198 in symmetry   1)
      Norm of electronic gradient            0.381E+00
--


      Final state energy(ies):
      ------------------------

::    RASSCF root number  1 Total energy: -14590.44203967
::    RASSCF root number  2 Total energy: -14590.44202471
::    RASSCF root number  3 Total energy: -14590.44142883
::    RASSCF root number  4 Total energy: -14590.44121911
::    RASSCF root number  5 Total energy: -14590.44112321
::    RASSCF root number  6 Total energy: -14590.44063589
::    RASSCF root number  7 Total energy: -14590.44044312
::    RASSCF root number  8 Total energy: -14590.44014588
::    RASSCF root number  9 Total energy: -14590.44005662
::    RASSCF root number 10 Total energy: -14590.43950465
::    RASSCF root number 11 Total energy: -14590.43949588
::    RASSCF root number 12 Total energy: -14590.40743578
::    RASSCF root number 13 Total energy: -14590.40735765
::    RASSCF root number 14 Total energy: -14590.40678794
::    RASSCF root number 15 Total energy: -14590.40659483
::    RASSCF root number 16 Total energy: -14590.40653188
::    RASSCF root number 17 Total energy: -14590.40643642
::    RASSCF root number 18 Total energy: -14590.40625722
::    RASSCF root number 19 Total energy: -14590.28351087
::    RASSCF root number 20 Total energy: -14590.28216100
::    RASSCF root number 21 Total energy: -14590.28157385

++    Molecular orbitals:
      -------------------

      Pseudonatural active orbitals and approximate occupation numbers


      MOLECULAR ORBITALS FOR SYMMETRY SPECIES 1: a  

      INDEX  ENERGY  OCCUPATION COEFFICIENTS ...
          1-1984.0048    2.0000                                                                                                           
               254 DY1    1s     ( 1.0000)
          2 -335.3189    2.0000                                                                                                           
               255 DY1    2s     ( 1.0000)
          3 -298.1297    2.0000                                                                                                           
               262 DY1    2px    ( 0.2113) 269 DY1    2py    ( 0.9133) 276 DY1    2pz    ( 0.3482)
          4 -298.1297    2.0000                                                                                                           
               262 DY1    2px    ( 0.5402) 269 DY1    2py    (-0.4061) 276 DY1    2pz    ( 0.7371)
          5 -298.1297    2.0000                                                                                                           
               262 DY1    2px    (-0.8145) 276 DY1    2pz    ( 0.5792)
          6  -76.8043    2.0000                                                                                                           
               256 DY1    3s     ( 1.0000)
          7  -65.0826    2.0000                                                                                                           
               263 DY1    3px    ( 0.4527) 270 DY1    3py    ( 0.6098) 277 DY1    3pz    ( 0.6506)
          8  -65.0825    2.0000                                                                                                           
               263 DY1    3px    ( 0.3901) 270 DY1    3py    (-0.7915) 277 DY1    3pz    ( 0.4705)
          9  -65.0824    2.0000                                                                                                           
               263 DY1    3px    (-0.8018) 277 DY1    3pz    ( 0.5962)
         10  -49.6287    2.0000                                                                                                           
               283 DY1    3d2-   ( 0.3874) 288 DY1    3d1-   ( 0.5999) 298 DY1    3d1+   ( 0.3820) 303 DY1    3d2+   ( 0.5862)
      
         11  -49.6286    2.0000                                                                                                           
               288 DY1    3d1-   (-0.7132) 293 DY1    3d0    ( 0.2565) 303 DY1    3d2+   ( 0.6437)
         12  -49.6284    2.0000                                                                                                           
               283 DY1    3d2-   ( 0.3248) 288 DY1    3d1-   ( 0.2223) 293 DY1    3d0    ( 0.4448) 298 DY1    3d1+   (-0.7988)
      
         13  -49.6284    2.0000                                                                                                           
               283 DY1    3d2-   ( 0.1427) 293 DY1    3d0    ( 0.7953) 298 DY1    3d1+   ( 0.4587) 303 DY1    3d2+   (-0.3697)
      
         14  -49.6284    2.0000                                                                                                           
               283 DY1    3d2-   (-0.8463) 288 DY1    3d1-   ( 0.2864) 293 DY1    3d0    ( 0.3213) 303 DY1    3d2+   ( 0.3103)
      
         15  -26.3266    2.0000                                                                                                           
               538 F1     1s     ( 1.0000)
         16  -26.3260    2.0000                                                                                                           
               573 F8     1s     (-1.0000)
         17  -26.3246    2.0000                                                                                                           
               548 F3     1s     (-1.0000)
         18  -26.3232    2.0000                                                                                                           
               543 F2     1s     ( 1.0000)
         19  -26.3189    2.0000                                                                                                           
               558 F5     1s     ( 1.0000)
         20  -26.3179    2.0000                                                                                                           
               578 F9     1s     ( 1.0000)
         21  -26.3143    2.0000                                                                                                           
               563 F6     1s     ( 1.0000)
         22  -26.3121    2.0000                                                                                                           
               553 F4     1s     ( 1.0000)
         23  -26.3002    2.0000                                                                                                           
               568 F7     1s     (-1.0000)
         24  -20.6133    2.0000                                                                                                           
               418 O3     1s     ( 0.9999)
         25  -20.6091    2.0000                                                                                                           
               358 O1     1s     (-0.9999)
         26  -20.6083    2.0000                                                                                                           
               478 O5     1s     ( 0.9999)
         27  -20.6082    2.0000                                                                                                           
               388 O2     1s     (-0.9999)
         28  -20.6032    2.0000                                                                                                           
               448 O4     1s     ( 0.9999)
         29  -20.5997    2.0000                                                                                                           
               508 O6     1s     (-0.9999)
         30  -16.3227    2.0000                                                                                                           
               257 DY1    4s     ( 0.9997)
         31  -15.6843    2.0000                                                                                                           
                61 N3     1s     ( 0.9998)
         32  -15.6837    2.0000                                                                                                           
                31 N2     1s     ( 0.9998)
         33  -15.6662    2.0000                                                                                                           
                 1 N1     1s     (-0.9999)
         34  -15.6645    2.0000                                                                                                           
                91 N4     1s     ( 0.9999)
         35  -12.3462    2.0000                                                                                                           
               264 DY1    4px    ( 0.4235) 271 DY1    4py    ( 0.6853) 278 DY1    4pz    ( 0.5924)
         36  -12.3461    2.0000                                                                                                           
               264 DY1    4px    ( 0.3675) 271 DY1    4py    (-0.7277) 278 DY1    4pz    ( 0.5791)
         37  -12.3457    2.0000                                                                                                           
               264 DY1    4px    ( 0.8280) 278 DY1    4pz    (-0.5600)
         38  -11.6906    2.0000                                                                                                           
               181 C13    1s     ( 1.0000)
         39  -11.6810    2.0000                                                                                                           
               231 C23    1s     ( 1.0000)
         40  -11.6777    2.0000                                                                                                           
               206 C18    1s     ( 1.0000)
         41  -11.4538    2.0000                                                                                                           
               191 C15    1s     (-1.0005)
         42  -11.4510    2.0000                                                                                                           
               166 C10    1s     ( 1.0005)
         43  -11.4507    2.0000                                                                                                           
               216 C20    1s     (-0.9999)
         44  -11.4507    2.0000                                                                                                           
               176 C12    1s     (-0.9998)
         45  -11.4487    2.0000                                                                                                           
               201 C17    1s     (-1.0005)
[...]
   6      0.577350269190     0.577350269190     0.577350269190     0.006101255491
   7     -0.577350269190     0.577350269190     0.577350269190     0.006101255491
   8      0.577350269190    -0.577350269190     0.577350269190     0.006101255491
   9     -0.577350269190    -0.577350269190     0.577350269190     0.006101255491
  10      0.706896546391     0.706896546391     0.024383301669     0.003242209201
  11     -0.706896546391     0.706896546391     0.024383301669     0.003242209201
  12      0.706896546391    -0.706896546391     0.024383301669     0.003242209201
  13     -0.706896546391    -0.706896546391     0.024383301669     0.003242209201
  14      0.706896546391     0.024383301669     0.706896546391     0.003242209201
  15     -0.706896546391     0.024383301669     0.706896546391     0.003242209201
  16      0.706896546391    -0.024383301669     0.706896546391     0.003242209201
  17     -0.706896546391    -0.024383301669     0.706896546391     0.003242209201
  18      0.024383301669     0.706896546391     0.706896546391     0.003242209201
  19     -0.024383301669     0.706896546391     0.706896546391     0.003242209201
  20      0.024383301669    -0.706896546391     0.706896546391     0.003242209201
  21     -0.024383301669    -0.706896546391     0.706896546391     0.003242209201
  22      0.479468262571     0.479468262571     0.734996850588     0.006011402970
  23     -0.479468262571     0.479468262571     0.734996850588     0.006011402970
  24      0.479468262571    -0.479468262571     0.734996850588     0.006011402970
  25     -0.479468262571    -0.479468262571     0.734996850588     0.006011402970
  26      0.479468262571     0.734996850588     0.479468262571     0.006011402970
  27     -0.479468262571     0.734996850588     0.479468262571     0.006011402970
  28      0.479468262571    -0.734996850588     0.479468262571     0.006011402970
  29     -0.479468262571    -0.734996850588     0.479468262571     0.006011402970
  30      0.734996850588     0.479468262571     0.479468262571     0.006011402970
  31     -0.734996850588     0.479468262571     0.479468262571     0.006011402970
  32      0.734996850588    -0.479468262571     0.479468262571     0.006011402970
  33     -0.734996850588    -0.479468262571     0.479468262571     0.006011402970
  34      0.192753315488     0.192753315488     0.962129055136     0.005981985059
  35     -0.192753315488     0.192753315488     0.962129055136     0.005981985059
  36      0.192753315488    -0.192753315488     0.962129055136     0.005981985059
  37     -0.192753315488    -0.192753315488     0.962129055136     0.005981985059
  38      0.192753315488     0.962129055136     0.192753315488     0.005981985059
  39     -0.192753315488     0.962129055136     0.192753315488     0.005981985059
  40      0.192753315488    -0.962129055136     0.192753315488     0.005981985059
  41     -0.192753315488    -0.962129055136     0.192753315488     0.005981985059
  42      0.962129055136     0.192753315488     0.192753315488     0.005981985059
  43     -0.962129055136     0.192753315488     0.192753315488     0.005981985059
  44      0.962129055136    -0.192753315488     0.192753315488     0.005981985059
  45     -0.962129055136    -0.192753315488     0.192753315488     0.005981985059
  46      0.693035796133     0.693035796133     0.198501311223     0.005964341288
  47     -0.693035796133     0.693035796133     0.198501311223     0.005964341288
  48      0.693035796133    -0.693035796133     0.198501311223     0.005964341288
  49     -0.693035796133    -0.693035796133     0.198501311223     0.005964341288
  50      0.693035796133     0.198501311223     0.693035796133     0.005964341288
  51     -0.693035796133     0.198501311223     0.693035796133     0.005964341288
  52      0.693035796133    -0.198501311223     0.693035796133     0.005964341288
  53     -0.693035796133    -0.198501311223     0.693035796133     0.005964341288
  54      0.198501311223     0.693035796133     0.693035796133     0.005964341288
  55     -0.198501311223     0.693035796133     0.693035796133     0.005964341288
  56      0.198501311223    -0.693035796133     0.693035796133     0.005964341288
  57     -0.198501311223    -0.693035796133     0.693035796133     0.005964341288
  58      0.360830211552     0.360830211552     0.860001812128     0.005443128475
  59     -0.360830211552     0.360830211552     0.860001812128     0.005443128475
  60      0.360830211552    -0.360830211552     0.860001812128     0.005443128475
  61     -0.360830211552    -0.360830211552     0.860001812128     0.005443128475
  62      0.360830211552     0.860001812128     0.360830211552     0.005443128475
  63     -0.360830211552     0.860001812128     0.360830211552     0.005443128475
  64      0.360830211552    -0.860001812128     0.360830211552     0.005443128475
  65     -0.360830211552    -0.860001812128     0.360830211552     0.005443128475
  66      0.860001812128     0.360830211552     0.360830211552     0.005443128475
  67     -0.860001812128     0.360830211552     0.360830211552     0.005443128475
  68      0.860001812128    -0.360830211552     0.360830211552     0.005443128475
  69     -0.860001812128    -0.360830211552     0.360830211552     0.005443128475
  70      0.649848616150     0.649848616150     0.394199888606     0.006067027592
  71     -0.649848616150     0.649848616150     0.394199888606     0.006067027592
  72      0.649848616150    -0.649848616150     0.394199888606     0.006067027592
  73     -0.649848616150    -0.649848616150     0.394199888606     0.006067027592
  74      0.649848616150     0.394199888606     0.649848616150     0.006067027592
  75     -0.649848616150     0.394199888606     0.649848616150     0.006067027592
  76      0.649848616150    -0.394199888606     0.649848616150     0.006067027592
  77     -0.649848616150    -0.394199888606     0.649848616150     0.006067027592
  78      0.394199888606     0.649848616150     0.649848616150     0.006067027592
  79     -0.394199888606     0.649848616150     0.649848616150     0.006067027592
  80      0.394199888606    -0.649848616150     0.649848616150     0.006067027592
  81     -0.394199888606    -0.649848616150     0.649848616150     0.006067027592
  82      0.193294501323     0.981140782843     0.000000000000     0.003007949555
  83     -0.193294501323     0.981140782843     0.000000000000     0.003007949555
  84      0.193294501323    -0.981140782843     0.000000000000     0.003007949555
  85     -0.193294501323    -0.981140782843     0.000000000000     0.003007949555
  86      0.981140782843     0.193294501323     0.000000000000     0.003007949555
  87     -0.981140782843     0.193294501323     0.000000000000     0.003007949555
  88      0.981140782843    -0.193294501323     0.000000000000     0.003007949555
  89     -0.981140782843    -0.193294501323     0.000000000000     0.003007949555
  90      0.193294501323     0.000000000000     0.981140782843     0.006015899110
  91     -0.193294501323     0.000000000000     0.981140782843     0.006015899110
  92      0.981140782843     0.000000000000     0.193294501323     0.006015899110
  93     -0.981140782843     0.000000000000     0.193294501323     0.006015899110
  94      0.000000000000     0.193294501323     0.981140782843     0.006015899110
  95      0.000000000000    -0.193294501323     0.981140782843     0.006015899110
  96      0.000000000000     0.981140782843     0.193294501323     0.006015899110
  97      0.000000000000    -0.981140782843     0.193294501323     0.006015899110
  98      0.380049491990     0.924966152699     0.000000000000     0.002881964603
  99     -0.380049491990     0.924966152699     0.000000000000     0.002881964603
 100      0.380049491990    -0.924966152699     0.000000000000     0.002881964603
 101     -0.380049491990    -0.924966152699     0.000000000000     0.002881964603
 102      0.924966152699     0.380049491990     0.000000000000     0.002881964603
 103     -0.924966152699     0.380049491990     0.000000000000     0.002881964603
 104      0.924966152699    -0.380049491990     0.000000000000     0.002881964603
 105     -0.924966152699    -0.380049491990     0.000000000000     0.002881964603
 106      0.380049491990     0.000000000000     0.924966152699     0.005763929206
 107     -0.380049491990     0.000000000000     0.924966152699     0.005763929206
 108      0.924966152699     0.000000000000     0.380049491990     0.005763929206
 109     -0.924966152699     0.000000000000     0.380049491990     0.005763929206
 110      0.000000000000     0.380049491990     0.924966152699     0.005763929206
 111      0.000000000000    -0.380049491990     0.924966152699     0.005763929206
 112      0.000000000000     0.924966152699     0.380049491990     0.005763929206
 113      0.000000000000    -0.924966152699     0.380049491990     0.005763929206
 114      0.289955882550     0.793453785658     0.535123047718     0.005916715253
 115     -0.289955882550     0.793453785658     0.535123047718     0.005916715253
 116      0.289955882550    -0.793453785658     0.535123047718     0.005916715253
 117     -0.289955882550    -0.793453785658     0.535123047718     0.005916715253
 118      0.289955882550     0.535123047718     0.793453785658     0.005916715253
 119     -0.289955882550     0.535123047718     0.793453785658     0.005916715253
 120      0.289955882550    -0.535123047718     0.793453785658     0.005916715253
 121     -0.289955882550    -0.535123047718     0.793453785658     0.005916715253
 122      0.793453785658     0.289955882550     0.535123047718     0.005916715253
 123     -0.793453785658     0.289955882550     0.535123047718     0.005916715253
 124      0.793453785658    -0.289955882550     0.535123047718     0.005916715253
 125     -0.793453785658    -0.289955882550     0.535123047718     0.005916715253
 126      0.793453785658     0.535123047718     0.289955882550     0.005916715253
 127     -0.793453785658     0.535123047718     0.289955882550     0.005916715253
 128      0.793453785658    -0.535123047718     0.289955882550     0.005916715253
 129     -0.793453785658    -0.535123047718     0.289955882550     0.005916715253
 130      0.535123047718     0.289955882550     0.793453785658     0.005916715253
 131     -0.535123047718     0.289955882550     0.793453785658     0.005916715253
 132      0.535123047718    -0.289955882550     0.793453785658     0.005916715253
 133     -0.535123047718    -0.289955882550     0.793453785658     0.005916715253
 134      0.535123047718     0.793453785658     0.289955882550     0.005916715253
 135     -0.535123047718     0.793453785658     0.289955882550     0.005916715253
 136      0.535123047718    -0.793453785658     0.289955882550     0.005916715253
 137     -0.535123047718    -0.793453785658     0.289955882550     0.005916715253
 138      0.096841214551     0.828080150669     0.552182074349     0.006072040053
 139     -0.096841214551     0.828080150669     0.552182074349     0.006072040053
 140      0.096841214551    -0.828080150669     0.552182074349     0.006072040053
 141     -0.096841214551    -0.828080150669     0.552182074349     0.006072040053
 142      0.096841214551     0.552182074349     0.828080150669     0.006072040053
 143     -0.096841214551     0.552182074349     0.828080150669     0.006072040053
 144      0.096841214551    -0.552182074349     0.828080150669     0.006072040053
 145     -0.096841214551    -0.552182074349     0.828080150669     0.006072040053
 146      0.828080150669     0.096841214551     0.552182074349     0.006072040053
 147     -0.828080150669     0.096841214551     0.552182074349     0.006072040053
 148      0.828080150669    -0.096841214551     0.552182074349     0.006072040053
 149     -0.828080150669    -0.096841214551     0.552182074349     0.006072040053
 150      0.828080150669     0.552182074349     0.096841214551     0.006072040053
 151     -0.828080150669     0.552182074349     0.096841214551     0.006072040053
 152      0.828080150669    -0.552182074349     0.096841214551     0.006072040053
 153     -0.828080150669    -0.552182074349     0.096841214551     0.006072040053
 154      0.552182074349     0.096841214551     0.828080150669     0.006072040053
 155     -0.552182074349     0.096841214551     0.828080150669     0.006072040053
 156      0.552182074349    -0.096841214551     0.828080150669     0.006072040053
 157     -0.552182074349    -0.096841214551     0.828080150669     0.006072040053
 158      0.552182074349     0.828080150669     0.096841214551     0.006072040053
 159     -0.552182074349     0.828080150669     0.096841214551     0.006072040053
 160      0.552182074349    -0.828080150669     0.096841214551     0.006072040053
 161     -0.552182074349    -0.828080150669     0.096841214551     0.006072040053
 162      0.183343464704     0.907465826531     0.378009189874     0.005664374808
 163     -0.183343464704     0.907465826531     0.378009189874     0.005664374808
 164      0.183343464704    -0.907465826531     0.378009189874     0.005664374808
 165     -0.183343464704    -0.907465826531     0.378009189874     0.005664374808
 166      0.183343464704     0.378009189874     0.907465826531     0.005664374808
 167     -0.183343464704     0.378009189874     0.907465826531     0.005664374808
 168      0.183343464704    -0.378009189874     0.907465826531     0.005664374808
 169     -0.183343464704    -0.378009189874     0.907465826531     0.005664374808
 170      0.907465826531     0.183343464704     0.378009189874     0.005664374808
 171     -0.907465826531     0.183343464704     0.378009189874     0.005664374808
 172      0.907465826531    -0.183343464704     0.378009189874     0.005664374808
 173     -0.907465826531    -0.183343464704     0.378009189874     0.005664374808
 174      0.907465826531     0.378009189874     0.183343464704     0.005664374808
 175     -0.907465826531     0.378009189874     0.183343464704     0.005664374808
 176      0.907465826531    -0.378009189874     0.183343464704     0.005664374808
 177     -0.907465826531    -0.378009189874     0.183343464704     0.005664374808
 178      0.378009189874     0.183343464704     0.907465826531     0.005664374808
 179     -0.378009189874     0.183343464704     0.907465826531     0.005664374808
 180      0.378009189874    -0.183343464704     0.907465826531     0.005664374808
 181     -0.378009189874    -0.183343464704     0.907465826531     0.005664374808
 182      0.378009189874     0.907465826531     0.183343464704     0.005664374808
 183     -0.378009189874     0.907465826531     0.183343464704     0.005664374808
 184      0.378009189874    -0.907465826531     0.183343464704     0.005664374808
 185     -0.378009189874    -0.907465826531     0.183343464704     0.005664374808
  --------------------------------------------------------------------------------
  The cut-off energy for the exact diagonalization of the Zeeman Hamiltonian is:
  E =  1300.907094000 cm(-1).
  The exact diagonalization of the Zeeman Hamiltonian included  16 exchange states.
  The magnetization vector was not calculated.
  Computation of the Zeeman splitting was not requested.

                         HIGH-FIELD POWDER MAGNETIZATION
                              (Units: Bohr magneton)

-----------|---------------|---------------|---------------|---------------|
   H(T)    |STATISTICAL SUM|     2.000 K.  |     4.000 K.  |     6.000 K.  |
-----------|---------------|---------------|---------------|---------------|
  0.000100 |     1.9995902 |  0.0010602958 |  0.0005326921 |  0.0003568242 |
  0.100000 |     1.6637587 |  1.0385168614 |  0.5299081362 |  0.3559957288 |
  0.200000 |     1.4405758 |  1.9603340562 |  1.0436029351 |  0.7070865763 |
  0.300000 |     1.2924363 |  2.7027201846 |  1.5271533366 |  1.0486875005 |
  0.400000 |     1.1941074 |  3.2629207962 |  1.9704933452 |  1.3768062437 |
  0.500000 |     1.1288408 |  3.6711469625 |  2.3679649572 |  1.6882344546 |
  0.600000 |     1.0855196 |  3.9650025467 |  2.7179316802 |  1.9806413742 |
  0.700000 |     1.0567647 |  4.1771038286 |  3.0218442313 |  2.2525743609 |
  0.800000 |     1.0376783 |  4.3320239950 |  3.2831606769 |  2.5033852802 |
  0.900000 |     1.0250095 |  4.4471313084 |  3.5063923595 |  2.7331088074 |
  1.000000 |     1.0166005 |  4.5343670757 |  3.6963917583 |  2.9423185318 |
  1.100000 |     1.0110189 |  4.6018718635 |  3.8578889195 |  3.1319818872 |
  1.200000 |     1.0073140 |  4.6552074712 |  3.9952302059 |  3.3033281563 |
  1.300000 |     1.0048548 |  4.6982058172 |  4.1122601005 |  3.4577372496 |
  1.400000 |     1.0032225 |  4.7335387116 |  4.2122937300 |  3.5966518066 |
  1.500000 |     1.0021390 |  4.7630951782 |  4.2981410674 |  3.7215117242 |
  1.600000 |     1.0014198 |  4.7882307799 |  4.3721566423 |  3.8337083090 |
  1.700000 |     1.0009425 |  4.8099330739 |  4.4362986119 |  3.9345544835 |
  1.800000 |     1.0006256 |  4.8289323182 |  4.4921880209 |  4.0252674411 |
  1.900000 |     1.0004153 |  4.8457763365 |  4.5411635503 |  4.1069605138 |
  2.000000 |     1.0002756 |  4.8608817623 |  4.5843297615 |  4.1806415509 |
  2.100000 |     1.0001830 |  4.8745695682 |  4.6225983690 |  4.2472156753 |
  2.200000 |     1.0001215 |  4.8870900301 |  4.6567228722 |  4.3074907969 |
  2.300000 |     1.0000806 |  4.8986404993 |  4.6873272459 |  4.3621847018 |
  2.400000 |     1.0000535 |  4.9093782223 |  4.7149295064 |  4.4119328781 |
  2.500000 |     1.0000355 |  4.9194297040 |  4.7399609620 |  4.4572965127 |
  2.600000 |     1.0000236 |  4.9288976310 |  4.7627818864 |  4.4987702868 |
  2.700000 |     1.0000157 |  4.9378660489 |  4.7836942564 |  4.5367897438 |
  2.800000 |     1.0000104 |  4.9464042765 |  4.8029520986 |  4.5717381033 |
  2.900000 |     1.0000069 |  4.9545698968 |  4.8207698964 |  4.6039524660 |
  3.000000 |     1.0000046 |  4.9624110625 |  4.8373294286 |  4.6337293957 |
  3.100000 |     1.0000030 |  4.9699682917 |  4.8527853405 |  4.6613298991 |
  3.200000 |     1.0000020 |  4.9772758766 |  4.8672696927 |  4.6869838377 |
  3.300000 |     1.0000013 |  4.9843629983 |  4.8808956823 |  4.7108938168 |
  3.400000 |     1.0000009 |  4.9912546160 |  4.8937606973 |  4.7332385998 |
  3.500000 |     1.0000006 |  4.9979721799 |  4.9059488292 |  4.7541760976 |
  3.600000 |     1.0000004 |  5.0045342084 |  4.9175329465 |  4.7738459802 |
  3.700000 |     1.0000003 |  5.0109567568 |  4.9285764119 |  4.7923719541 |
  3.800000 |     1.0000002 |  5.0172538009 |  4.9391345080 |  4.8098637471 |
  3.900000 |     1.0000001 |  5.0234375529 |  4.9492556255 |  4.8264188362 |
  4.000000 |     1.0000001 |  5.0295187222 |  4.9589822566 |  4.8421239523 |
  4.100000 |     1.0000001 |  5.0355067325 |  4.9683518285 |  4.8570563894 |
  4.200000 |     1.0000000 |  5.0414099031 |  4.9773974043 |  4.8712851449 |
  4.300000 |     1.0000000 |  5.0472356007 |  4.9861482755 |  4.8848719132 |
  4.400000 |     1.0000000 |  5.0529903680 |  4.9946304636 |  4.8978719510 |
  4.500000 |     1.0000000 |  5.0586800316 |  5.0028671459 |  4.9103348330 |
  4.600000 |     1.0000000 |  5.0643097947 |  5.0108790197 |  4.9223051112 |
  4.700000 |     1.0000000 |  5.0698843154 |  5.0186846129 |  4.9338228911 |
  4.800000 |     1.0000000 |  5.0754077740 |  5.0263005503 |  4.9449243362 |
  4.900000 |     1.0000000 |  5.0808839305 |  5.0337417835 |  4.9556421093 |
  5.000000 |     1.0000000 |  5.0863161750 |  5.0410217884 |  4.9660057601 |
-----------|---------------|---------------|---------------|---------------|
--- Stop Module: single_aniso at Sun Mar 30 05:01:18 2025 /rc=_RC_ALL_IS_WELL_ ---
*** files: xmldump
    saved to directory /media/korden/5fb66ce1-8053-4a4f-9303-c4fa91c2cea8/home/korden/calc/orca/Artem/XOPLIA
--- Module single_aniso spent 25 seconds ---

>>> COPY XOPLIA.aniso /media/korden/5fb66ce1-8053-4a4f-9303-c4fa91c2cea8/home/korden/calc/orca/Artem/XOPLIA/XOPLIA_new.aniso

    Timing: Wall=25291.82 User=25168.03 System=121.66